M 0.0 nn 5 x 530 y 530 rp AOMDV
M 0.0 sc setdes500x500.tcl cp cbr5node.tcl seed 1.0
M 0.0 prop Propagation/TwoRayGround ant Antenna/OmniAntenna
s 2.556838879 _3_ AGT  --- 0 cbr 512 [0 0 0 0] [energy 5.000000 ei 0.000 es 0.000 et 0.000 er 0.000] ------- [3:0 4:0 32 0] [0] 0 0
r 2.556838879 _3_ RTR  --- 0 cbr 512 [0 0 0 0] [energy 5.000000 ei 0.000 es 0.000 et 0.000 er 0.000] ------- [3:0 4:0 32 0] [0] 0 0
s 2.556838879 _3_ RTR  --- 0 AOMDV 52 [0 0 0 0] [energy 5.000000 ei 0.000 es 0.000 et 0.000 er 0.000] ------- [3:255 -1:255 30 0] [0x2 0 1 [4 0] [3 4]] (REQUEST)
s 2.557153879 _3_ MAC  --- 0 AOMDV 110 [0 ffffffff 3 800] [energy 5.000000 ei 0.000 es 0.000 et 0.000 er 0.000] ------- [3:255 -1:255 30 0] [0x2 0 1 [4 0] [3 4]] (REQUEST)
N -t 2.557155 -n 0 -e 4.872054
r 2.558035199 _0_ MAC  --- 0 AOMDV 52 [0 ffffffff 3 800] [energy 4.872054 ei 0.128 es 0.000 et 0.000 er 0.000] ------- [3:255 -1:255 30 0] [0x2 0 1 [4 0] [3 4]] (REQUEST)
r 2.558060199 _0_ RTR  --- 0 AOMDV 52 [0 ffffffff 3 800] [energy 4.872054 ei 0.128 es 0.000 et 0.000 er 0.000] ------- [3:255 -1:255 30 0] [0x2 0 1 [4 0] [3 4]] (REQUEST)
s 2.559808251 _0_ RTR  --- 0 AOMDV 52 [0 ffffffff 3 800] [energy 4.872054 ei 0.128 es 0.000 et 0.000 er 0.000] ------- [0:255 -1:255 29 0] [0x2 1 1 [4 0] [3 4]] (REQUEST)
s 2.560223251 _0_ MAC  --- 0 AOMDV 110 [0 ffffffff 0 800] [energy 4.872054 ei 0.128 es 0.000 et 0.000 er 0.000] ------- [0:255 -1:255 29 0] [0x2 1 1 [4 0] [3 4]] (REQUEST)
N -t 2.560224 -n 2 -e 4.871901
N -t 2.560224 -n 4 -e 4.871901
N -t 2.560225 -n 3 -e 4.871654
r 2.561104191 _2_ MAC  --- 0 AOMDV 52 [0 ffffffff 0 800] [energy 4.871901 ei 0.128 es 0.000 et 0.000 er 0.000] ------- [0:255 -1:255 29 0] [0x2 1 1 [4 0] [3 4]] (REQUEST)
r 2.561104466 _4_ MAC  --- 0 AOMDV 52 [0 ffffffff 0 800] [energy 4.871901 ei 0.128 es 0.000 et 0.000 er 0.000] ------- [0:255 -1:255 29 0] [0x2 1 1 [4 0] [3 4]] (REQUEST)
r 2.561104572 _3_ MAC  --- 0 AOMDV 52 [0 ffffffff 0 800] [energy 4.871654 ei 0.128 es 0.000 et 0.000 er 0.000] ------- [0:255 -1:255 29 0] [0x2 1 1 [4 0] [3 4]] (REQUEST)
r 2.561129191 _2_ RTR  --- 0 AOMDV 52 [0 ffffffff 0 800] [energy 4.871901 ei 0.128 es 0.000 et 0.000 er 0.000] ------- [0:255 -1:255 29 0] [0x2 1 1 [4 0] [3 4]] (REQUEST)
r 2.561129466 _4_ RTR  --- 0 AOMDV 52 [0 ffffffff 0 800] [energy 4.871901 ei 0.128 es 0.000 et 0.000 er 0.000] ------- [0:255 -1:255 29 0] [0x2 1 1 [4 0] [3 4]] (REQUEST)
s 2.561129466 _4_ RTR  --- 0 AOMDV 52 [0 0 0 0] [energy 4.871901 ei 0.128 es 0.000 et 0.000 er 0.000] ------- [4:255 3:255 30 0] [0x4 0 [4 2] 10.000000] (REPLY) [1 0]
r 2.561129572 _3_ RTR  --- 0 AOMDV 52 [0 ffffffff 0 800] [energy 4.871654 ei 0.128 es 0.000 et 0.000 er 0.000] ------- [0:255 -1:255 29 0] [0x2 1 1 [4 0] [3 4]] (REQUEST)
s 2.561404466 _4_ MAC  --- 0 ARP 86 [0 ffffffff 4 806] [energy 4.871901 ei 0.128 es 0.000 et 0.000 er 0.000] ------- [REQUEST 4/4 0/0]
N -t 2.561405 -n 2 -e 4.871817
N -t 2.561406 -n 0 -e 4.871571
r 2.562092745 _2_ MAC  --- 0 ARP 28 [0 ffffffff 4 806] [energy 4.871817 ei 0.128 es 0.000 et 0.000 er 0.000] ------- [REQUEST 4/4 0/0]
r 2.562093680 _0_ MAC  --- 0 ARP 28 [0 ffffffff 4 806] [energy 4.871571 ei 0.128 es 0.000 et 0.000 er 0.000] ------- [REQUEST 4/4 0/0]
s 2.562223680 _0_ MAC  --- 0 RTS 44 [52e 4 0 0] [energy 4.871571 ei 0.128 es 0.000 et 0.000 er 0.000] 
N -t 2.562225 -n 2 -e 4.871775
N -t 2.562225 -n 4 -e 4.871617
N -t 2.562225 -n 3 -e 4.871563
r 2.562576895 _4_ MAC  --- 0 RTS 44 [52e 4 0 0] [energy 4.871617 ei 0.128 es 0.000 et 0.000 er 0.000] 
s 2.562586895 _4_ MAC  --- 0 CTS 38 [3f4 0 0 0] [energy 4.871617 ei 0.128 es 0.000 et 0.000 er 0.000] 
N -t 2.562587 -n 2 -e 4.871744
N -t 2.562588 -n 0 -e 4.871417
r 2.562892109 _0_ MAC  --- 0 CTS 38 [3f4 0 0 0] [energy 4.871417 ei 0.128 es 0.000 et 0.000 er 0.000] 
s 2.562902109 _0_ MAC  --- 0 ARP 86 [13a 4 0 806] [energy 4.871417 ei 0.128 es 0.000 et 0.000 er 0.000] ------- [REPLY 0/0 4/4]
N -t 2.562903 -n 2 -e 4.871675
N -t 2.562903 -n 4 -e 4.871447
N -t 2.562903 -n 3 -e 4.871478
r 2.563591324 _4_ MAC  --- 0 ARP 28 [13a 4 0 806] [energy 4.871447 ei 0.128 es 0.000 et 0.000 er 0.000] ------- [REPLY 0/0 4/4]
s 2.563601324 _4_ MAC  --- 0 ACK 38 [0 0 0 0] [energy 4.871447 ei 0.128 es 0.000 et 0.000 er 0.000] 
N -t 2.563602 -n 2 -e 4.871644
N -t 2.563603 -n 0 -e 4.871158
r 2.563906538 _0_ MAC  --- 0 ACK 38 [0 0 0 0] [energy 4.871158 ei 0.128 es 0.000 et 0.001 er 0.000] 
s 2.564195324 _4_ MAC  --- 0 RTS 44 [5ee 0 4 0] [energy 4.871346 ei 0.128 es 0.000 et 0.000 er 0.000] 
N -t 2.564196 -n 2 -e 4.871594
N -t 2.564197 -n 0 -e 4.871109
r 2.564548538 _0_ MAC  --- 0 RTS 44 [5ee 0 4 0] [energy 4.871109 ei 0.128 es 0.000 et 0.001 er 0.000] 
s 2.564558538 _0_ MAC  --- 0 CTS 38 [4b4 4 0 0] [energy 4.871109 ei 0.128 es 0.000 et 0.001 er 0.000] 
N -t 2.564559 -n 2 -e 4.871563
N -t 2.564560 -n 4 -e 4.871184
N -t 2.564560 -n 3 -e 4.871399
s 2.564616601 _2_ RTR  --- 0 AOMDV 52 [0 ffffffff 0 800] [energy 4.871563 ei 0.128 es 0.000 et 0.000 er 0.000] ------- [2:255 -1:255 28 0] [0x2 2 1 [4 0] [3 4]] (REQUEST)
r 2.564863753 _4_ MAC  --- 0 CTS 38 [4b4 4 0 0] [energy 4.871184 ei 0.128 es 0.000 et 0.001 er 0.000] 
s 2.564873753 _4_ MAC  --- 0 AOMDV 110 [13a 0 4 800] [energy 4.871184 ei 0.128 es 0.000 et 0.001 er 0.000] ------- [4:255 3:255 30 0] [0x4 0 [4 2] 10.000000] (REPLY) [1 0]
N -t 2.564874 -n 2 -e 4.871475
N -t 2.564875 -n 0 -e 4.870919
r 2.565754967 _0_ MAC  --- 0 AOMDV 52 [13a 0 4 800] [energy 4.870919 ei 0.128 es 0.000 et 0.001 er 0.000] ------- [4:255 3:255 30 0] [0x4 0 [4 2] 10.000000] (REPLY) [1 0]
s 2.565764967 _0_ MAC  --- 0 ACK 38 [0 4 0 0] [energy 4.870919 ei 0.128 es 0.000 et 0.001 er 0.000] 
N -t 2.565766 -n 2 -e 4.871444
N -t 2.565766 -n 4 -e 4.870862
N -t 2.565766 -n 3 -e 4.871324
r 2.565779967 _0_ RTR  --- 0 AOMDV 52 [13a 0 4 800] [energy 4.870818 ei 0.128 es 0.000 et 0.001 er 0.000] ------- [4:255 3:255 30 0] [0x4 0 [4 2] 10.000000] (REPLY) [1 0]
f 2.565779967 _0_ RTR  --- 0 AOMDV 52 [13a 0 4 800] [energy 4.870818 ei 0.128 es 0.000 et 0.001 er 0.000] ------- [4:255 3:255 29 3] [0x4 1 [4 2] 10.000000] (REPLY) [1 0]
r 2.566070181 _4_ MAC  --- 0 ACK 38 [0 4 0 0] [energy 4.870862 ei 0.128 es 0.000 et 0.001 er 0.000] 
s 2.566299906 _2_ MAC  --- 0 AOMDV 110 [0 ffffffff 2 800] [energy 4.871444 ei 0.128 es 0.000 et 0.000 er 0.001] ------- [2:255 -1:255 28 0] [0x2 2 1 [4 0] [3 4]] (REQUEST)
N -t 2.566300 -n 4 -e 4.870763
N -t 2.566301 -n 0 -e 4.870719
r 2.567180185 _4_ MAC  --- 0 AOMDV 52 [0 ffffffff 2 800] [energy 4.870763 ei 0.128 es 0.000 et 0.001 er 0.000] ------- [2:255 -1:255 28 0] [0x2 2 1 [4 0] [3 4]] (REQUEST)
r 2.567180846 _0_ MAC  --- 0 AOMDV 52 [0 ffffffff 2 800] [energy 4.870719 ei 0.128 es 0.000 et 0.001 er 0.000] ------- [2:255 -1:255 28 0] [0x2 2 1 [4 0] [3 4]] (REQUEST)
r 2.567205185 _4_ RTR  --- 0 AOMDV 52 [0 ffffffff 2 800] [energy 4.870763 ei 0.128 es 0.000 et 0.001 er 0.000] ------- [2:255 -1:255 28 0] [0x2 2 1 [4 0] [3 4]] (REQUEST)
r 2.567205846 _0_ RTR  --- 0 AOMDV 52 [0 ffffffff 2 800] [energy 4.870719 ei 0.128 es 0.000 et 0.001 er 0.000] ------- [2:255 -1:255 28 0] [0x2 2 1 [4 0] [3 4]] (REQUEST)
s 2.567250846 _0_ MAC  --- 0 ARP 86 [0 ffffffff 0 806] [energy 4.870719 ei 0.128 es 0.000 et 0.001 er 0.000] ------- [REQUEST 0/0 0/3]
N -t 2.567252 -n 2 -e 4.871069
N -t 2.567252 -n 4 -e 4.870690
N -t 2.567252 -n 3 -e 4.871196
r 2.567939785 _2_ MAC  --- 0 ARP 28 [0 ffffffff 0 806] [energy 4.871069 ei 0.128 es 0.000 et 0.000 er 0.001] ------- [REQUEST 0/0 0/3]
r 2.567940060 _4_ MAC  --- 0 ARP 28 [0 ffffffff 0 806] [energy 4.870690 ei 0.128 es 0.000 et 0.001 er 0.000] ------- [REQUEST 0/0 0/3]
r 2.567940166 _3_ MAC  --- 0 ARP 28 [0 ffffffff 0 806] [energy 4.871196 ei 0.128 es 0.000 et 0.000 er 0.000] ------- [REQUEST 0/0 0/3]
s 2.568122745 _2_ RTR  --- 0 AOMDV 44 [0 0 0 0] [energy 4.871069 ei 0.128 es 0.000 et 0.000 er 0.001] ------- [2:255 -1:255 1 0] [0x1 0 [2 2] 4.000000] (HELLO) [0 0]
s 2.568355166 _3_ MAC  --- 0 RTS 44 [52e 0 3 0] [energy 4.871196 ei 0.128 es 0.000 et 0.000 er 0.000] 
N -t 2.568356 -n 0 -e 4.870432
s 2.568369785 _2_ MAC  --- 0 AOMDV 102 [0 ffffffff 2 800] [energy 4.871069 ei 0.128 es 0.000 et 0.000 er 0.001] ------- [2:255 -1:255 1 0] [0x1 0 [2 2] 4.000000] (HELLO) [0 0]
N -t 2.568370 -n 4 -e 4.870587
N -t 2.568371 -n 0 -e 4.870384
D 2.568370724 _0_ MAC  COL 0 RTS 44 [52e 0 3 0] [energy 4.870384 ei 0.128 es 0.000 et 0.001 er 0.001] 
r 2.569186064 _4_ MAC  --- 0 AOMDV 44 [0 ffffffff 2 800] [energy 4.870587 ei 0.128 es 0.000 et 0.001 er 0.000] ------- [2:255 -1:255 1 0] [0x1 0 [2 2] 4.000000] (HELLO) [0 0]
D 2.569186724 _0_ MAC  COL 0 AOMDV 102 [0 ffffffff 2 800] [energy 4.870384 ei 0.128 es 0.000 et 0.001 er 0.001] ------- [2:255 -1:255 1 0] [0x1 0 [2 2] 4.000000] (HELLO) [0 0]
r 2.569211064 _4_ RTR  --- 0 AOMDV 44 [0 ffffffff 2 800] [energy 4.870587 ei 0.128 es 0.000 et 0.001 er 0.000] ------- [2:255 -1:255 1 0] [0x1 0 [2 2] 4.000000] (HELLO) [0 0]
s 2.570195166 _3_ MAC  --- 0 RTS 44 [52e 0 3 0] [energy 4.871059 ei 0.128 es 0.000 et 0.000 er 0.000] 
N -t 2.570196 -n 0 -e 4.870299
r 2.570548486 _0_ MAC  --- 0 RTS 44 [52e 0 3 0] [energy 4.870299 ei 0.128 es 0.000 et 0.001 er 0.001] 
s 2.570558486 _0_ MAC  --- 0 CTS 38 [3f4 3 0 0] [energy 4.870299 ei 0.128 es 0.000 et 0.001 er 0.001] 
N -t 2.570559 -n 2 -e 4.870680
N -t 2.570560 -n 4 -e 4.870488
N -t 2.570560 -n 3 -e 4.870837
r 2.570863806 _3_ MAC  --- 0 CTS 38 [3f4 3 0 0] [energy 4.870837 ei 0.128 es 0.000 et 0.001 er 0.000] 
s 2.570873806 _3_ MAC  --- 0 ARP 86 [13a 0 3 806] [energy 4.870837 ei 0.128 es 0.000 et 0.001 er 0.000] ------- [REPLY 3/3 0/0]
N -t 2.570875 -n 0 -e 4.870128
r 2.571563126 _0_ MAC  --- 0 ARP 28 [13a 0 3 806] [energy 4.870128 ei 0.128 es 0.000 et 0.001 er 0.001] ------- [REPLY 3/3 0/0]
s 2.571573126 _0_ MAC  --- 0 ACK 38 [0 3 0 0] [energy 4.870128 ei 0.128 es 0.000 et 0.001 er 0.001] 
N -t 2.571574 -n 2 -e 4.870614
N -t 2.571574 -n 4 -e 4.870422
N -t 2.571574 -n 3 -e 4.870579
r 2.571878447 _3_ MAC  --- 0 ACK 38 [0 3 0 0] [energy 4.870579 ei 0.128 es 0.000 et 0.001 er 0.000] 
s 2.572067126 _0_ MAC  --- 0 RTS 44 [5ee 3 0 0] [energy 4.870028 ei 0.128 es 0.000 et 0.001 er 0.001] 
N -t 2.572068 -n 2 -e 4.870569
N -t 2.572068 -n 4 -e 4.870378
N -t 2.572068 -n 3 -e 4.870534
r 2.572420447 _3_ MAC  --- 0 RTS 44 [5ee 3 0 0] [energy 4.870534 ei 0.128 es 0.000 et 0.001 er 0.000] 
s 2.572430447 _3_ MAC  --- 0 CTS 38 [4b4 0 0 0] [energy 4.870534 ei 0.128 es 0.000 et 0.001 er 0.000] 
N -t 2.572432 -n 0 -e 4.869871
r 2.572735767 _0_ MAC  --- 0 CTS 38 [4b4 0 0 0] [energy 4.869871 ei 0.128 es 0.000 et 0.001 er 0.001] 
s 2.572745767 _0_ MAC  --- 0 AOMDV 110 [13a 3 0 800] [energy 4.869871 ei 0.128 es 0.000 et 0.001 er 0.001] ------- [4:255 3:255 29 3] [0x4 1 [4 2] 10.000000] (REPLY) [1 0]
N -t 2.572747 -n 2 -e 4.870465
N -t 2.572747 -n 4 -e 4.870273
N -t 2.572747 -n 3 -e 4.870345
r 2.573627087 _3_ MAC  --- 0 AOMDV 52 [13a 3 0 800] [energy 4.870345 ei 0.128 es 0.000 et 0.001 er 0.001] ------- [4:255 3:255 29 3] [0x4 1 [4 2] 10.000000] (REPLY) [1 0]
s 2.573637087 _3_ MAC  --- 0 ACK 38 [0 0 0 0] [energy 4.870345 ei 0.128 es 0.000 et 0.001 er 0.001] 
N -t 2.573638 -n 0 -e 4.869549
r 2.573652087 _3_ RTR  --- 0 AOMDV 52 [13a 3 0 800] [energy 4.870244 ei 0.128 es 0.000 et 0.001 er 0.001] ------- [4:255 3:255 29 3] [0x4 1 [4 2] 10.000000] (REPLY) [1 0]
s 2.573652087 _3_ RTR  --- 0 cbr 532 [0 0 0 0] [energy 4.870244 ei 0.128 es 0.000 et 0.001 er 0.001] ------- [3:0 4:0 30 0] [0] 0 0
r 2.573942407 _0_ MAC  --- 0 ACK 38 [0 0 0 0] [energy 4.869549 ei 0.128 es 0.000 et 0.002 er 0.001] 
s 2.574271087 _3_ MAC  --- 0 RTS 44 [14ee 0 3 0] [energy 4.870244 ei 0.128 es 0.000 et 0.001 er 0.001] 
N -t 2.574272 -n 0 -e 4.869497
r 2.574624407 _0_ MAC  --- 0 RTS 44 [14ee 0 3 0] [energy 4.869497 ei 0.128 es 0.000 et 0.002 er 0.001] 
s 2.574634407 _0_ MAC  --- 0 CTS 38 [13b4 3 0 0] [energy 4.869497 ei 0.128 es 0.000 et 0.002 er 0.001] 
N -t 2.574635 -n 2 -e 4.870384
N -t 2.574636 -n 4 -e 4.870192
N -t 2.574636 -n 3 -e 4.870080
r 2.574939727 _3_ MAC  --- 0 CTS 38 [13b4 3 0 0] [energy 4.870080 ei 0.128 es 0.000 et 0.001 er 0.001] 
s 2.574949727 _3_ MAC  --- 0 cbr 590 [13a 0 3 800] [energy 4.870080 ei 0.128 es 0.000 et 0.001 er 0.001] ------- [3:0 4:0 30 0] [0] 0 0
N -t 2.574951 -n 0 -e 4.868924
r 2.579671048 _0_ MAC  --- 0 cbr 532 [13a 0 3 800] [energy 4.868924 ei 0.128 es 0.000 et 0.002 er 0.001] ------- [3:0 4:0 30 0] [0] 1 0
s 2.579681048 _0_ MAC  --- 0 ACK 38 [0 3 0 0] [energy 4.868924 ei 0.128 es 0.000 et 0.002 er 0.001] 
N -t 2.579682 -n 2 -e 4.870116
N -t 2.579682 -n 4 -e 4.869925
N -t 2.579682 -n 3 -e 4.868491
r 2.579696048 _0_ RTR  --- 0 cbr 532 [13a 0 3 800] [energy 4.868823 ei 0.128 es 0.000 et 0.002 er 0.001] ------- [3:0 4:0 30 0] [0] 1 0
f 2.579696048 _0_ RTR  --- 0 cbr 532 [13a 0 3 800] [energy 4.868823 ei 0.128 es 0.000 et 0.002 er 0.001] ------- [3:0 4:0 29 4] [0] 1 0
r 2.579986368 _3_ MAC  --- 0 ACK 38 [0 3 0 0] [energy 4.868491 ei 0.128 es 0.000 et 0.003 er 0.001] 
s 2.580135048 _0_ MAC  --- 0 RTS 44 [14ee 4 0 0] [energy 4.868823 ei 0.128 es 0.000 et 0.002 er 0.001] 
N -t 2.580136 -n 2 -e 4.870074
N -t 2.580136 -n 4 -e 4.869882
N -t 2.580136 -n 3 -e 4.868448
r 2.580488262 _4_ MAC  --- 0 RTS 44 [14ee 4 0 0] [energy 4.869882 ei 0.129 es 0.000 et 0.001 er 0.001] 
s 2.580498262 _4_ MAC  --- 0 CTS 38 [13b4 0 0 0] [energy 4.869882 ei 0.129 es 0.000 et 0.001 er 0.001] 
N -t 2.580499 -n 2 -e 4.870043
N -t 2.580499 -n 0 -e 4.868668
r 2.580803477 _0_ MAC  --- 0 CTS 38 [13b4 0 0 0] [energy 4.868668 ei 0.128 es 0.000 et 0.002 er 0.001] 
s 2.580813477 _0_ MAC  --- 0 cbr 590 [13a 4 0 800] [energy 4.868668 ei 0.128 es 0.000 et 0.002 er 0.001] ------- [3:0 4:0 29 4] [0] 1 0
N -t 2.580814 -n 2 -e 4.869570
N -t 2.580815 -n 4 -e 4.869309
N -t 2.580815 -n 3 -e 4.867960
r 2.585534691 _4_ MAC  --- 0 cbr 532 [13a 4 0 800] [energy 4.869309 ei 0.129 es 0.000 et 0.001 er 0.001] ------- [3:0 4:0 29 4] [0] 2 0
s 2.585544691 _4_ MAC  --- 0 ACK 38 [0 0 0 0] [energy 4.869309 ei 0.129 es 0.000 et 0.001 er 0.001] 
N -t 2.585545 -n 2 -e 4.869539
N -t 2.585546 -n 0 -e 4.867079
r 2.585559691 _4_ AGT  --- 0 cbr 532 [13a 4 0 800] [energy 4.869208 ei 0.129 es 0.000 et 0.001 er 0.001] ------- [3:0 4:0 29 4] [0] 2 0
r 2.585849905 _0_ MAC  --- 0 ACK 38 [0 0 0 0] [energy 4.867079 ei 0.128 es 0.000 et 0.004 er 0.001] 
s 2.679600528 _3_ AGT  --- 1 cbr 512 [0 0 0 0] [energy 4.867960 ei 0.128 es 0.000 et 0.003 er 0.001] ------- [3:0 4:0 32 0] [1] 0 0
r 2.679600528 _3_ RTR  --- 1 cbr 512 [0 0 0 0] [energy 4.867960 ei 0.128 es 0.000 et 0.003 er 0.001] ------- [3:0 4:0 32 0] [1] 0 0
s 2.679600528 _3_ RTR  --- 1 cbr 532 [0 0 0 0] [energy 4.867960 ei 0.128 es 0.000 et 0.003 er 0.001] ------- [3:0 4:0 30 0] [1] 0 0
s 2.680255528 _3_ MAC  --- 0 RTS 44 [14ee 0 3 0] [energy 4.867960 ei 0.128 es 0.000 et 0.003 er 0.001] 
N -t 2.680257 -n 0 -e 4.862324
r 2.680608849 _0_ MAC  --- 0 RTS 44 [14ee 0 3 0] [energy 4.862324 ei 0.133 es 0.000 et 0.004 er 0.001] 
s 2.680618849 _0_ MAC  --- 0 CTS 38 [13b4 3 0 0] [energy 4.862324 ei 0.133 es 0.000 et 0.004 er 0.001] 
N -t 2.680620 -n 2 -e 4.864770
N -t 2.680620 -n 4 -e 4.864439
N -t 2.680620 -n 3 -e 4.863077
r 2.680924169 _3_ MAC  --- 0 CTS 38 [13b4 3 0 0] [energy 4.863077 ei 0.133 es 0.000 et 0.003 er 0.001] 
s 2.680934169 _3_ MAC  --- 1 cbr 590 [13a 0 3 800] [energy 4.863077 ei 0.133 es 0.000 et 0.003 er 0.001] ------- [3:0 4:0 30 0] [1] 0 0
N -t 2.680935 -n 0 -e 4.861750
r 2.685655489 _0_ MAC  --- 1 cbr 532 [13a 0 3 800] [energy 4.861750 ei 0.133 es 0.000 et 0.004 er 0.002] ------- [3:0 4:0 30 0] [1] 1 0
s 2.685665489 _0_ MAC  --- 0 ACK 38 [0 3 0 0] [energy 4.861750 ei 0.133 es 0.000 et 0.004 er 0.002] 
N -t 2.685666 -n 2 -e 4.864503
N -t 2.685667 -n 4 -e 4.864171
N -t 2.685667 -n 3 -e 4.861488
r 2.685680489 _0_ RTR  --- 1 cbr 532 [13a 0 3 800] [energy 4.861649 ei 0.133 es 0.000 et 0.004 er 0.002] ------- [3:0 4:0 30 0] [1] 1 0
f 2.685680489 _0_ RTR  --- 1 cbr 532 [13a 0 3 800] [energy 4.861649 ei 0.133 es 0.000 et 0.004 er 0.002] ------- [3:0 4:0 29 4] [1] 1 0
r 2.685970809 _3_ MAC  --- 0 ACK 38 [0 3 0 0] [energy 4.861488 ei 0.133 es 0.000 et 0.004 er 0.001] 
s 2.686079489 _0_ MAC  --- 0 RTS 44 [14ee 4 0 0] [energy 4.861649 ei 0.133 es 0.000 et 0.004 er 0.002] 
N -t 2.686080 -n 2 -e 4.864462
N -t 2.686081 -n 4 -e 4.864131
N -t 2.686081 -n 3 -e 4.861447
r 2.686432703 _4_ MAC  --- 0 RTS 44 [14ee 4 0 0] [energy 4.864131 ei 0.133 es 0.000 et 0.001 er 0.001] 
s 2.686442703 _4_ MAC  --- 0 CTS 38 [13b4 0 0 0] [energy 4.864131 ei 0.133 es 0.000 et 0.001 er 0.001] 
N -t 2.686443 -n 2 -e 4.864431
N -t 2.686444 -n 0 -e 4.861497
r 2.686747918 _0_ MAC  --- 0 CTS 38 [13b4 0 0 0] [energy 4.861497 ei 0.133 es 0.000 et 0.004 er 0.002] 
s 2.686757918 _0_ MAC  --- 1 cbr 590 [13a 4 0 800] [energy 4.861497 ei 0.133 es 0.000 et 0.004 er 0.002] ------- [3:0 4:0 29 4] [1] 1 0
N -t 2.686759 -n 2 -e 4.863958
N -t 2.686759 -n 4 -e 4.863557
N -t 2.686759 -n 3 -e 4.860959
r 2.691479132 _4_ MAC  --- 1 cbr 532 [13a 4 0 800] [energy 4.863557 ei 0.133 es 0.000 et 0.001 er 0.002] ------- [3:0 4:0 29 4] [1] 2 0
s 2.691489132 _4_ MAC  --- 0 ACK 38 [0 0 0 0] [energy 4.863557 ei 0.133 es 0.000 et 0.001 er 0.002] 
N -t 2.691489 -n 2 -e 4.863927
N -t 2.691490 -n 0 -e 4.859907
r 2.691504132 _4_ AGT  --- 1 cbr 532 [13a 4 0 800] [energy 4.863456 ei 0.133 es 0.000 et 0.001 er 0.002] ------- [3:0 4:0 29 4] [1] 2 0
r 2.691794347 _0_ MAC  --- 0 ACK 38 [0 0 0 0] [energy 4.859907 ei 0.133 es 0.000 et 0.005 er 0.002] 
s 2.723696640 _3_ RTR  --- 0 AOMDV 44 [0 0 0 0] [energy 4.860959 ei 0.133 es 0.000 et 0.004 er 0.002] ------- [3:255 -1:255 1 0] [0x1 0 [3 4] 4.000000] (HELLO) [0 0]
s 2.724051640 _3_ MAC  --- 0 AOMDV 102 [0 ffffffff 3 800] [energy 4.860959 ei 0.133 es 0.000 et 0.004 er 0.002] ------- [3:255 -1:255 1 0] [0x1 0 [3 4] 4.000000] (HELLO) [0 0]
N -t 2.724053 -n 0 -e 4.858213
r 2.724868960 _0_ MAC  --- 0 AOMDV 44 [0 ffffffff 3 800] [energy 4.858213 ei 0.134 es 0.000 et 0.005 er 0.002] ------- [3:255 -1:255 1 0] [0x1 0 [3 4] 4.000000] (HELLO) [0 0]
r 2.724893960 _0_ RTR  --- 0 AOMDV 44 [0 ffffffff 3 800] [energy 4.858213 ei 0.134 es 0.000 et 0.005 er 0.002] ------- [3:255 -1:255 1 0] [0x1 0 [3 4] 4.000000] (HELLO) [0 0]
s 2.731820219 _0_ RTR  --- 0 AOMDV 44 [0 0 0 0] [energy 4.858213 ei 0.134 es 0.000 et 0.005 er 0.002] ------- [0:255 -1:255 1 0] [0x1 0 [0 2] 4.000000] (HELLO) [0 0]
s 2.732375219 _0_ MAC  --- 0 AOMDV 102 [0 ffffffff 0 800] [energy 4.858213 ei 0.134 es 0.000 et 0.005 er 0.002] ------- [0:255 -1:255 1 0] [0x1 0 [0 2] 4.000000] (HELLO) [0 0]
N -t 2.732376 -n 2 -e 4.861817
N -t 2.732376 -n 4 -e 4.861346
N -t 2.732377 -n 3 -e 4.858604
r 2.733192158 _2_ MAC  --- 0 AOMDV 44 [0 ffffffff 0 800] [energy 4.861817 ei 0.136 es 0.000 et 0.001 er 0.002] ------- [0:255 -1:255 1 0] [0x1 0 [0 2] 4.000000] (HELLO) [0 0]
r 2.733192433 _4_ MAC  --- 0 AOMDV 44 [0 ffffffff 0 800] [energy 4.861346 ei 0.136 es 0.000 et 0.001 er 0.002] ------- [0:255 -1:255 1 0] [0x1 0 [0 2] 4.000000] (HELLO) [0 0]
r 2.733192539 _3_ MAC  --- 0 AOMDV 44 [0 ffffffff 0 800] [energy 4.858604 ei 0.135 es 0.000 et 0.005 er 0.002] ------- [0:255 -1:255 1 0] [0x1 0 [0 2] 4.000000] (HELLO) [0 0]
r 2.733217158 _2_ RTR  --- 0 AOMDV 44 [0 ffffffff 0 800] [energy 4.861817 ei 0.136 es 0.000 et 0.001 er 0.002] ------- [0:255 -1:255 1 0] [0x1 0 [0 2] 4.000000] (HELLO) [0 0]
r 2.733217433 _4_ RTR  --- 0 AOMDV 44 [0 ffffffff 0 800] [energy 4.861346 ei 0.136 es 0.000 et 0.001 er 0.002] ------- [0:255 -1:255 1 0] [0x1 0 [0 2] 4.000000] (HELLO) [0 0]
r 2.733217539 _3_ RTR  --- 0 AOMDV 44 [0 ffffffff 0 800] [energy 4.858604 ei 0.135 es 0.000 et 0.005 er 0.002] ------- [0:255 -1:255 1 0] [0x1 0 [0 2] 4.000000] (HELLO) [0 0]
s 2.957870093 _3_ AGT  --- 2 cbr 512 [0 0 0 0] [energy 4.858604 ei 0.135 es 0.000 et 0.005 er 0.002] ------- [3:0 4:0 32 0] [2] 0 0
r 2.957870093 _3_ RTR  --- 2 cbr 512 [0 0 0 0] [energy 4.858604 ei 0.135 es 0.000 et 0.005 er 0.002] ------- [3:0 4:0 32 0] [2] 0 0
s 2.957870093 _3_ RTR  --- 2 cbr 532 [0 0 0 0] [energy 4.858604 ei 0.135 es 0.000 et 0.005 er 0.002] ------- [3:0 4:0 30 0] [2] 0 0
s 2.958265093 _3_ MAC  --- 0 RTS 44 [14ee 0 3 0] [energy 4.858604 ei 0.135 es 0.000 et 0.005 er 0.002] 
N -t 2.958266 -n 0 -e 4.846279
r 2.958618413 _0_ MAC  --- 0 RTS 44 [14ee 0 3 0] [energy 4.846279 ei 0.146 es 0.000 et 0.006 er 0.002] 
s 2.958628413 _0_ MAC  --- 0 CTS 38 [13b4 3 0 0] [energy 4.846279 ei 0.146 es 0.000 et 0.006 er 0.002] 
N -t 2.958629 -n 2 -e 4.850514
N -t 2.958630 -n 4 -e 4.850043
N -t 2.958630 -n 3 -e 4.847203
r 2.958933733 _3_ MAC  --- 0 CTS 38 [13b4 3 0 0] [energy 4.847203 ei 0.146 es 0.000 et 0.005 er 0.002] 
s 2.958943733 _3_ MAC  --- 2 cbr 590 [13a 0 3 800] [energy 4.847203 ei 0.146 es 0.000 et 0.005 er 0.002] ------- [3:0 4:0 30 0] [2] 0 0
N -t 2.958945 -n 0 -e 4.845706
r 2.963665053 _0_ MAC  --- 2 cbr 532 [13a 0 3 800] [energy 4.845706 ei 0.146 es 0.000 et 0.006 er 0.002] ------- [3:0 4:0 30 0] [2] 1 0
s 2.963675053 _0_ MAC  --- 0 ACK 38 [0 3 0 0] [energy 4.845706 ei 0.146 es 0.000 et 0.006 er 0.002] 
N -t 2.963676 -n 2 -e 4.850247
N -t 2.963676 -n 4 -e 4.849776
N -t 2.963676 -n 3 -e 4.845614
r 2.963690053 _0_ RTR  --- 2 cbr 532 [13a 0 3 800] [energy 4.845605 ei 0.146 es 0.000 et 0.006 er 0.002] ------- [3:0 4:0 30 0] [2] 1 0
f 2.963690053 _0_ RTR  --- 2 cbr 532 [13a 0 3 800] [energy 4.845605 ei 0.146 es 0.000 et 0.006 er 0.002] ------- [3:0 4:0 29 4] [2] 1 0
r 2.963980373 _3_ MAC  --- 0 ACK 38 [0 3 0 0] [energy 4.845614 ei 0.146 es 0.000 et 0.006 er 0.002] 
s 2.964189053 _0_ MAC  --- 0 RTS 44 [14ee 4 0 0] [energy 4.845605 ei 0.146 es 0.000 et 0.006 er 0.002] 
N -t 2.964190 -n 2 -e 4.850201
N -t 2.964190 -n 4 -e 4.849730
N -t 2.964190 -n 3 -e 4.845568
r 2.964542268 _4_ MAC  --- 0 RTS 44 [14ee 4 0 0] [energy 4.849730 ei 0.147 es 0.000 et 0.001 er 0.002] 
s 2.964552268 _4_ MAC  --- 0 CTS 38 [13b4 0 0 0] [energy 4.849730 ei 0.147 es 0.000 et 0.001 er 0.002] 
N -t 2.964553 -n 2 -e 4.850170
N -t 2.964553 -n 0 -e 4.845447
r 2.964857482 _0_ MAC  --- 0 CTS 38 [13b4 0 0 0] [energy 4.845447 ei 0.146 es 0.000 et 0.006 er 0.002] 
s 2.964867482 _0_ MAC  --- 2 cbr 590 [13a 4 0 800] [energy 4.845447 ei 0.146 es 0.000 et 0.006 er 0.002] ------- [3:0 4:0 29 4] [2] 1 0
N -t 2.964868 -n 2 -e 4.849698
N -t 2.964869 -n 4 -e 4.849157
N -t 2.964869 -n 3 -e 4.845080
r 2.969588697 _4_ MAC  --- 2 cbr 532 [13a 4 0 800] [energy 4.849157 ei 0.147 es 0.000 et 0.001 er 0.002] ------- [3:0 4:0 29 4] [2] 2 0
s 2.969598697 _4_ MAC  --- 0 ACK 38 [0 0 0 0] [energy 4.849157 ei 0.147 es 0.000 et 0.001 er 0.002] 
N -t 2.969599 -n 2 -e 4.849667
N -t 2.969600 -n 0 -e 4.843858
r 2.969613697 _4_ AGT  --- 2 cbr 532 [13a 4 0 800] [energy 4.849056 ei 0.147 es 0.000 et 0.001 er 0.002] ------- [3:0 4:0 29 4] [2] 2 0
r 2.969903911 _0_ MAC  --- 0 ACK 38 [0 0 0 0] [energy 4.843858 ei 0.146 es 0.000 et 0.008 er 0.002] 
s 3.006049335 _4_ RTR  --- 0 AOMDV 44 [0 0 0 0] [energy 4.849056 ei 0.147 es 0.000 et 0.001 er 0.002] ------- [4:255 -1:255 1 0] [0x1 0 [4 2] 4.000000] (HELLO) [0 0]
s 3.006124335 _4_ MAC  --- 0 AOMDV 102 [0 ffffffff 4 800] [energy 4.849056 ei 0.147 es 0.000 et 0.001 er 0.002] ------- [4:255 -1:255 1 0] [0x1 0 [4 2] 4.000000] (HELLO) [0 0]
N -t 3.006125 -n 2 -e 4.847774
N -t 3.006126 -n 0 -e 4.841966
r 3.006940614 _2_ MAC  --- 0 AOMDV 44 [0 ffffffff 4 800] [energy 4.847774 ei 0.149 es 0.000 et 0.001 er 0.003] ------- [4:255 -1:255 1 0] [0x1 0 [4 2] 4.000000] (HELLO) [0 0]
r 3.006941550 _0_ MAC  --- 0 AOMDV 44 [0 ffffffff 4 800] [energy 4.841966 ei 0.148 es 0.000 et 0.008 er 0.003] ------- [4:255 -1:255 1 0] [0x1 0 [4 2] 4.000000] (HELLO) [0 0]
r 3.006965614 _2_ RTR  --- 0 AOMDV 44 [0 ffffffff 4 800] [energy 4.847774 ei 0.149 es 0.000 et 0.001 er 0.003] ------- [4:255 -1:255 1 0] [0x1 0 [4 2] 4.000000] (HELLO) [0 0]
r 3.006966550 _0_ RTR  --- 0 AOMDV 44 [0 ffffffff 4 800] [energy 4.841966 ei 0.148 es 0.000 et 0.008 er 0.003] ------- [4:255 -1:255 1 0] [0x1 0 [4 2] 4.000000] (HELLO) [0 0]
s 3.233201227 _3_ AGT  --- 3 cbr 512 [0 0 0 0] [energy 4.845080 ei 0.146 es 0.000 et 0.006 er 0.002] ------- [3:0 4:0 32 0] [3] 0 0
r 3.233201227 _3_ RTR  --- 3 cbr 512 [0 0 0 0] [energy 4.845080 ei 0.146 es 0.000 et 0.006 er 0.002] ------- [3:0 4:0 32 0] [3] 0 0
s 3.233201227 _3_ RTR  --- 3 cbr 532 [0 0 0 0] [energy 4.845080 ei 0.146 es 0.000 et 0.006 er 0.002] ------- [3:0 4:0 30 0] [3] 0 0
s 3.233296227 _3_ MAC  --- 0 RTS 44 [14ee 0 3 0] [energy 4.845080 ei 0.146 es 0.000 et 0.006 er 0.002] 
N -t 3.233298 -n 0 -e 4.830613
r 3.233649548 _0_ MAC  --- 0 RTS 44 [14ee 0 3 0] [energy 4.830613 ei 0.159 es 0.000 et 0.008 er 0.003] 
s 3.233659548 _0_ MAC  --- 0 CTS 38 [13b4 3 0 0] [energy 4.830613 ei 0.159 es 0.000 et 0.008 er 0.003] 
N -t 3.233660 -n 2 -e 4.836408
N -t 3.233661 -n 4 -e 4.835609
N -t 3.233661 -n 3 -e 4.831747
r 3.233964868 _3_ MAC  --- 0 CTS 38 [13b4 3 0 0] [energy 4.831747 ei 0.160 es 0.000 et 0.006 er 0.002] 
s 3.233974868 _3_ MAC  --- 3 cbr 590 [13a 0 3 800] [energy 4.831747 ei 0.160 es 0.000 et 0.006 er 0.002] ------- [3:0 4:0 30 0] [3] 0 0
N -t 3.233976 -n 0 -e 4.830039
r 3.238696188 _0_ MAC  --- 3 cbr 532 [13a 0 3 800] [energy 4.830039 ei 0.159 es 0.000 et 0.008 er 0.003] ------- [3:0 4:0 30 0] [3] 1 0
s 3.238706188 _0_ MAC  --- 0 ACK 38 [0 3 0 0] [energy 4.830039 ei 0.159 es 0.000 et 0.008 er 0.003] 
N -t 3.238707 -n 2 -e 4.836140
N -t 3.238707 -n 4 -e 4.835342
N -t 3.238708 -n 3 -e 4.830158
r 3.238721188 _0_ RTR  --- 3 cbr 532 [13a 0 3 800] [energy 4.829938 ei 0.159 es 0.000 et 0.008 er 0.003] ------- [3:0 4:0 30 0] [3] 1 0
f 3.238721188 _0_ RTR  --- 3 cbr 532 [13a 0 3 800] [energy 4.829938 ei 0.159 es 0.000 et 0.008 er 0.003] ------- [3:0 4:0 29 4] [3] 1 0
r 3.239011508 _3_ MAC  --- 0 ACK 38 [0 3 0 0] [energy 4.830158 ei 0.160 es 0.000 et 0.008 er 0.002] 
s 3.239540188 _0_ MAC  --- 0 RTS 44 [14ee 4 0 0] [energy 4.829938 ei 0.159 es 0.000 et 0.008 er 0.003] 
N -t 3.239541 -n 2 -e 4.836078
N -t 3.239541 -n 4 -e 4.835280
N -t 3.239542 -n 3 -e 4.830096
r 3.239893402 _4_ MAC  --- 0 RTS 44 [14ee 4 0 0] [energy 4.835280 ei 0.160 es 0.000 et 0.002 er 0.003] 
s 3.239903402 _4_ MAC  --- 0 CTS 38 [13b4 0 0 0] [energy 4.835280 ei 0.160 es 0.000 et 0.002 er 0.003] 
N -t 3.239904 -n 2 -e 4.836048
N -t 3.239905 -n 0 -e 4.829765
r 3.240208617 _0_ MAC  --- 0 CTS 38 [13b4 0 0 0] [energy 4.829765 ei 0.159 es 0.000 et 0.008 er 0.003] 
s 3.240218617 _0_ MAC  --- 3 cbr 590 [13a 4 0 800] [energy 4.829765 ei 0.159 es 0.000 et 0.008 er 0.003] ------- [3:0 4:0 29 4] [3] 1 0
N -t 3.240220 -n 2 -e 4.835575
N -t 3.240220 -n 4 -e 4.834706
N -t 3.240220 -n 3 -e 4.829608
r 3.244939831 _4_ MAC  --- 3 cbr 532 [13a 4 0 800] [energy 4.834706 ei 0.160 es 0.000 et 0.002 er 0.003] ------- [3:0 4:0 29 4] [3] 2 0
s 3.244949831 _4_ MAC  --- 0 ACK 38 [0 0 0 0] [energy 4.834706 ei 0.160 es 0.000 et 0.002 er 0.003] 
N -t 3.244950 -n 2 -e 4.835544
N -t 3.244951 -n 0 -e 4.828176
r 3.244964831 _4_ AGT  --- 3 cbr 532 [13a 4 0 800] [energy 4.834606 ei 0.160 es 0.000 et 0.002 er 0.003] ------- [3:0 4:0 29 4] [3] 2 0
r 3.245255046 _0_ MAC  --- 0 ACK 38 [0 0 0 0] [energy 4.828176 ei 0.159 es 0.000 et 0.009 er 0.003] 
s 3.487740375 _3_ AGT  --- 4 cbr 512 [0 0 0 0] [energy 4.829608 ei 0.160 es 0.000 et 0.008 er 0.003] ------- [3:0 4:0 32 0] [4] 0 0
r 3.487740375 _3_ RTR  --- 4 cbr 512 [0 0 0 0] [energy 4.829608 ei 0.160 es 0.000 et 0.008 er 0.003] ------- [3:0 4:0 32 0] [4] 0 0
s 3.487740375 _3_ RTR  --- 4 cbr 532 [0 0 0 0] [energy 4.829608 ei 0.160 es 0.000 et 0.008 er 0.003] ------- [3:0 4:0 30 0] [4] 0 0
s 3.487855375 _3_ MAC  --- 0 RTS 44 [14ee 0 3 0] [energy 4.829608 ei 0.160 es 0.000 et 0.008 er 0.003] 
N -t 3.487857 -n 0 -e 4.816010
r 3.488208695 _0_ MAC  --- 0 RTS 44 [14ee 0 3 0] [energy 4.816010 ei 0.171 es 0.000 et 0.009 er 0.003] 
s 3.488218695 _0_ MAC  --- 0 CTS 38 [13b4 3 0 0] [energy 4.816010 ei 0.171 es 0.000 et 0.009 er 0.003] 
N -t 3.488220 -n 2 -e 4.823365
N -t 3.488220 -n 4 -e 4.822427
N -t 3.488220 -n 3 -e 4.817315
r 3.488524015 _3_ MAC  --- 0 CTS 38 [13b4 3 0 0] [energy 4.817315 ei 0.172 es 0.000 et 0.008 er 0.003] 
s 3.488534015 _3_ MAC  --- 4 cbr 590 [13a 0 3 800] [energy 4.817315 ei 0.172 es 0.000 et 0.008 er 0.003] ------- [3:0 4:0 30 0] [4] 0 0
N -t 3.488535 -n 0 -e 4.815437
r 3.493255335 _0_ MAC  --- 4 cbr 532 [13a 0 3 800] [energy 4.815437 ei 0.171 es 0.000 et 0.010 er 0.004] ------- [3:0 4:0 30 0] [4] 1 0
s 3.493265335 _0_ MAC  --- 0 ACK 38 [0 3 0 0] [energy 4.815437 ei 0.171 es 0.000 et 0.010 er 0.004] 
N -t 3.493266 -n 2 -e 4.823098
N -t 3.493267 -n 4 -e 4.822159
N -t 3.493267 -n 3 -e 4.815726
r 3.493280335 _0_ RTR  --- 4 cbr 532 [13a 0 3 800] [energy 4.815336 ei 0.171 es 0.000 et 0.010 er 0.004] ------- [3:0 4:0 30 0] [4] 1 0
f 3.493280335 _0_ RTR  --- 4 cbr 532 [13a 0 3 800] [energy 4.815336 ei 0.171 es 0.000 et 0.010 er 0.004] ------- [3:0 4:0 29 4] [4] 1 0
r 3.493570656 _3_ MAC  --- 0 ACK 38 [0 3 0 0] [energy 4.815726 ei 0.172 es 0.000 et 0.010 er 0.003] 
s 3.494079335 _0_ MAC  --- 0 RTS 44 [14ee 4 0 0] [energy 4.815336 ei 0.171 es 0.000 et 0.010 er 0.004] 
N -t 3.494080 -n 2 -e 4.823037
N -t 3.494081 -n 4 -e 4.822099
N -t 3.494081 -n 3 -e 4.815665
r 3.494432550 _4_ MAC  --- 0 RTS 44 [14ee 4 0 0] [energy 4.822099 ei 0.173 es 0.000 et 0.002 er 0.003] 
s 3.494442550 _4_ MAC  --- 0 CTS 38 [13b4 0 0 0] [energy 4.822099 ei 0.173 es 0.000 et 0.002 er 0.003] 
N -t 3.494443 -n 2 -e 4.823006
N -t 3.494444 -n 0 -e 4.815163
r 3.494747764 _0_ MAC  --- 0 CTS 38 [13b4 0 0 0] [energy 4.815163 ei 0.171 es 0.000 et 0.010 er 0.004] 
s 3.494757764 _0_ MAC  --- 4 cbr 590 [13a 4 0 800] [energy 4.815163 ei 0.171 es 0.000 et 0.010 er 0.004] ------- [3:0 4:0 29 4] [4] 1 0
N -t 3.494759 -n 2 -e 4.822534
N -t 3.494759 -n 4 -e 4.821525
N -t 3.494759 -n 3 -e 4.815177
r 3.499478979 _4_ MAC  --- 4 cbr 532 [13a 4 0 800] [energy 4.821525 ei 0.173 es 0.000 et 0.002 er 0.004] ------- [3:0 4:0 29 4] [4] 2 0
s 3.499488979 _4_ MAC  --- 0 ACK 38 [0 0 0 0] [energy 4.821525 ei 0.173 es 0.000 et 0.002 er 0.004] 
N -t 3.499489 -n 2 -e 4.822503
N -t 3.499490 -n 0 -e 4.813574