n -t * -s 0  -x 336.70628094927099 -y 360.83086499777198 -Z 0 -z 20  -v circle -c green
n -t * -s 1  -x 29.413997455992 -y 14.590619372867 -Z 0 -z 20  -v circle -c green
n -t * -s 2  -x 71.903611406672994 -y 457.19935747270199 -Z 0 -z 20  -v circle -c green
n -t * -s 3  -x 500 -y 0 -Z 0 -z 20  -v circle -c green
n -t * -s 4  -x 0 -y 500 -Z 0 -z 20  -v circle -c green
V -t * -v 1.0a5 -a 0
W -t * -x 530 -y 530
A -t * -n 1 -p 0 -o 0x7fffffff -c 30 -a 1
A -t * -h 1 -m 1073741823 -s 0
+ -t 2.556838879 -s 3 -d -1 -p cbr -e 512 -c 2 -a 0 -i 0 -k AGT 
- -t 2.556838879 -s 3 -d -1 -p cbr -e 512 -c 2 -a 0 -i 0 -k AGT
h -t 2.556838879 -s 3 -d -1 -p cbr -e 512 -c 2 -a 0 -i 0 -k AGT
+ -t 2.556838879 -s 3 -d -1 -p AOMDV -e 52 -c 2 -a 0 -i 0 -k RTR 
- -t 2.556838879 -s 3 -d -1 -p AOMDV -e 52 -c 2 -a 0 -i 0 -k RTR
h -t 2.556838879 -s 3 -d -1 -p AOMDV -e 52 -c 2 -a 0 -i 0 -k RTR
+ -t 2.557153879 -s 3 -d -1 -p AOMDV -e 110 -c 2 -a 0 -i 0 -k MAC 
- -t 2.557153879 -s 3 -d -1 -p AOMDV -e 110 -c 2 -a 0 -i 0 -k MAC
h -t 2.557153879 -s 3 -d -1 -p AOMDV -e 110 -c 2 -a 0 -i 0 -k MAC
r -t 2.558035199 -s 0 -d -1 -p AOMDV -e 52 -c 2 -a 0 -i 0 -k MAC
r -t 2.558060199 -s 0 -d -1 -p AOMDV -e 52 -c 2 -a 0 -i 0 -k RTR
+ -t 2.559808251 -s 0 -d -1 -p AOMDV -e 52 -c 2 -a 0 -i 0 -k RTR 
- -t 2.559808251 -s 0 -d -1 -p AOMDV -e 52 -c 2 -a 0 -i 0 -k RTR
h -t 2.559808251 -s 0 -d -1 -p AOMDV -e 52 -c 2 -a 0 -i 0 -k RTR
+ -t 2.560223251 -s 0 -d -1 -p AOMDV -e 110 -c 2 -a 0 -i 0 -k MAC 
- -t 2.560223251 -s 0 -d -1 -p AOMDV -e 110 -c 2 -a 0 -i 0 -k MAC
h -t 2.560223251 -s 0 -d -1 -p AOMDV -e 110 -c 2 -a 0 -i 0 -k MAC
r -t 2.561104191 -s 2 -d -1 -p AOMDV -e 52 -c 2 -a 0 -i 0 -k MAC
r -t 2.561104466 -s 4 -d -1 -p AOMDV -e 52 -c 2 -a 0 -i 0 -k MAC
r -t 2.561104572 -s 3 -d -1 -p AOMDV -e 52 -c 2 -a 0 -i 0 -k MAC
r -t 2.561129191 -s 2 -d -1 -p AOMDV -e 52 -c 2 -a 0 -i 0 -k RTR
r -t 2.561129466 -s 4 -d -1 -p AOMDV -e 52 -c 2 -a 0 -i 0 -k RTR
+ -t 2.561129466 -s 4 -d 0 -p AOMDV -e 52 -c 2 -a 0 -i 0 -k RTR 
- -t 2.561129466 -s 4 -d 0 -p AOMDV -e 52 -c 2 -a 0 -i 0 -k RTR
h -t 2.561129466 -s 4 -d 0 -p AOMDV -e 52 -c 2 -a 0 -i 0 -k RTR
r -t 2.561129572 -s 3 -d -1 -p AOMDV -e 52 -c 2 -a 0 -i 0 -k RTR
+ -t 2.561404466 -s 4 -d -1 -p ARP -e 86 -c 2 -a 0 -i 0 -k MAC 
- -t 2.561404466 -s 4 -d -1 -p ARP -e 86 -c 2 -a 0 -i 0 -k MAC
h -t 2.561404466 -s 4 -d -1 -p ARP -e 86 -c 2 -a 0 -i 0 -k MAC
r -t 2.562092745 -s 2 -d -1 -p ARP -e 28 -c 2 -a 0 -i 0 -k MAC
r -t 2.562093680 -s 0 -d -1 -p ARP -e 28 -c 2 -a 0 -i 0 -k MAC
+ -t 2.562223680 -s 0 -d -1 -p RTS -e 44 -c 2 -a 0 -i 0 -k MAC 
- -t 2.562223680 -s 0 -d -1 -p RTS -e 44 -c 2 -a 0 -i 0 -k MAC
h -t 2.562223680 -s 0 -d -1 -p RTS -e 44 -c 2 -a 0 -i 0 -k MAC
r -t 2.562576895 -s 4 -d -1 -p RTS -e 44 -c 2 -a 0 -i 0 -k MAC
+ -t 2.562586895 -s 4 -d -1 -p CTS -e 38 -c 2 -a 0 -i 0 -k MAC 
- -t 2.562586895 -s 4 -d -1 -p CTS -e 38 -c 2 -a 0 -i 0 -k MAC
h -t 2.562586895 -s 4 -d -1 -p CTS -e 38 -c 2 -a 0 -i 0 -k MAC
r -t 2.562892109 -s 0 -d -1 -p CTS -e 38 -c 2 -a 0 -i 0 -k MAC
+ -t 2.562902109 -s 0 -d -1 -p ARP -e 86 -c 2 -a 0 -i 0 -k MAC 
- -t 2.562902109 -s 0 -d -1 -p ARP -e 86 -c 2 -a 0 -i 0 -k MAC
h -t 2.562902109 -s 0 -d -1 -p ARP -e 86 -c 2 -a 0 -i 0 -k MAC
r -t 2.563591324 -s 4 -d -1 -p ARP -e 28 -c 2 -a 0 -i 0 -k MAC
+ -t 2.563601324 -s 4 -d -1 -p ACK -e 38 -c 2 -a 0 -i 0 -k MAC 
- -t 2.563601324 -s 4 -d -1 -p ACK -e 38 -c 2 -a 0 -i 0 -k MAC
h -t 2.563601324 -s 4 -d -1 -p ACK -e 38 -c 2 -a 0 -i 0 -k MAC
r -t 2.563906538 -s 0 -d -1 -p ACK -e 38 -c 2 -a 0 -i 0 -k MAC
+ -t 2.564195324 -s 4 -d -1 -p RTS -e 44 -c 2 -a 0 -i 0 -k MAC 
- -t 2.564195324 -s 4 -d -1 -p RTS -e 44 -c 2 -a 0 -i 0 -k MAC
h -t 2.564195324 -s 4 -d -1 -p RTS -e 44 -c 2 -a 0 -i 0 -k MAC
r -t 2.564548538 -s 0 -d -1 -p RTS -e 44 -c 2 -a 0 -i 0 -k MAC
+ -t 2.564558538 -s 0 -d -1 -p CTS -e 38 -c 2 -a 0 -i 0 -k MAC 
- -t 2.564558538 -s 0 -d -1 -p CTS -e 38 -c 2 -a 0 -i 0 -k MAC
h -t 2.564558538 -s 0 -d -1 -p CTS -e 38 -c 2 -a 0 -i 0 -k MAC
+ -t 2.564616601 -s 2 -d -1 -p AOMDV -e 52 -c 2 -a 0 -i 0 -k RTR 
- -t 2.564616601 -s 2 -d -1 -p AOMDV -e 52 -c 2 -a 0 -i 0 -k RTR
h -t 2.564616601 -s 2 -d -1 -p AOMDV -e 52 -c 2 -a 0 -i 0 -k RTR
r -t 2.564863753 -s 4 -d -1 -p CTS -e 38 -c 2 -a 0 -i 0 -k MAC
+ -t 2.564873753 -s 4 -d 0 -p AOMDV -e 110 -c 2 -a 0 -i 0 -k MAC 
- -t 2.564873753 -s 4 -d 0 -p AOMDV -e 110 -c 2 -a 0 -i 0 -k MAC
h -t 2.564873753 -s 4 -d 0 -p AOMDV -e 110 -c 2 -a 0 -i 0 -k MAC
r -t 2.565754967 -s 0 -d 0 -p AOMDV -e 52 -c 2 -a 0 -i 0 -k MAC
+ -t 2.565764967 -s 0 -d -1 -p ACK -e 38 -c 2 -a 0 -i 0 -k MAC 
- -t 2.565764967 -s 0 -d -1 -p ACK -e 38 -c 2 -a 0 -i 0 -k MAC
h -t 2.565764967 -s 0 -d -1 -p ACK -e 38 -c 2 -a 0 -i 0 -k MAC
+ -t 2.565779967 -s 0 -d 3 -p AOMDV -e 52 -c 2 -a 0 -i 0 -k RTR 
- -t 2.565779967 -s 0 -d 3 -p AOMDV -e 52 -c 2 -a 0 -i 0 -k RTR
h -t 2.565779967 -s 0 -d 3 -p AOMDV -e 52 -c 2 -a 0 -i 0 -k RTR
r -t 2.566070181 -s 4 -d -1 -p ACK -e 38 -c 2 -a 0 -i 0 -k MAC
+ -t 2.566299906 -s 2 -d -1 -p AOMDV -e 110 -c 2 -a 0 -i 0 -k MAC 
- -t 2.566299906 -s 2 -d -1 -p AOMDV -e 110 -c 2 -a 0 -i 0 -k MAC
h -t 2.566299906 -s 2 -d -1 -p AOMDV -e 110 -c 2 -a 0 -i 0 -k MAC
r -t 2.567180185 -s 4 -d -1 -p AOMDV -e 52 -c 2 -a 0 -i 0 -k MAC
r -t 2.567180846 -s 0 -d -1 -p AOMDV -e 52 -c 2 -a 0 -i 0 -k MAC
r -t 2.567205185 -s 4 -d -1 -p AOMDV -e 52 -c 2 -a 0 -i 0 -k RTR
r -t 2.567205846 -s 0 -d -1 -p AOMDV -e 52 -c 2 -a 0 -i 0 -k RTR
+ -t 2.567250846 -s 0 -d -1 -p ARP -e 86 -c 2 -a 0 -i 0 -k MAC 
- -t 2.567250846 -s 0 -d -1 -p ARP -e 86 -c 2 -a 0 -i 0 -k MAC
h -t 2.567250846 -s 0 -d -1 -p ARP -e 86 -c 2 -a 0 -i 0 -k MAC
r -t 2.567939785 -s 2 -d -1 -p ARP -e 28 -c 2 -a 0 -i 0 -k MAC
r -t 2.567940060 -s 4 -d -1 -p ARP -e 28 -c 2 -a 0 -i 0 -k MAC
r -t 2.567940166 -s 3 -d -1 -p ARP -e 28 -c 2 -a 0 -i 0 -k MAC
+ -t 2.568122745 -s 2 -d -1 -p AOMDV -e 44 -c 2 -a 0 -i 0 -k RTR 
- -t 2.568122745 -s 2 -d -1 -p AOMDV -e 44 -c 2 -a 0 -i 0 -k RTR
h -t 2.568122745 -s 2 -d -1 -p AOMDV -e 44 -c 2 -a 0 -i 0 -k RTR
+ -t 2.568355166 -s 3 -d -1 -p RTS -e 44 -c 2 -a 0 -i 0 -k MAC 
- -t 2.568355166 -s 3 -d -1 -p RTS -e 44 -c 2 -a 0 -i 0 -k MAC
h -t 2.568355166 -s 3 -d -1 -p RTS -e 44 -c 2 -a 0 -i 0 -k MAC
+ -t 2.568369785 -s 2 -d -1 -p AOMDV -e 102 -c 2 -a 0 -i 0 -k MAC 
- -t 2.568369785 -s 2 -d -1 -p AOMDV -e 102 -c 2 -a 0 -i 0 -k MAC
h -t 2.568369785 -s 2 -d -1 -p AOMDV -e 102 -c 2 -a 0 -i 0 -k MAC
d -t 2.568370724 -s 0 -d -1 -p RTS -e 44 -c 2 -a 0 -i 0 -k MAC
r -t 2.569186064 -s 4 -d -1 -p AOMDV -e 44 -c 2 -a 0 -i 0 -k MAC
d -t 2.569186724 -s 0 -d -1 -p AOMDV -e 102 -c 2 -a 0 -i 0 -k MAC
r -t 2.569211064 -s 4 -d -1 -p AOMDV -e 44 -c 2 -a 0 -i 0 -k RTR
+ -t 2.570195166 -s 3 -d -1 -p RTS -e 44 -c 2 -a 0 -i 0 -k MAC 
- -t 2.570195166 -s 3 -d -1 -p RTS -e 44 -c 2 -a 0 -i 0 -k MAC
h -t 2.570195166 -s 3 -d -1 -p RTS -e 44 -c 2 -a 0 -i 0 -k MAC
r -t 2.570548486 -s 0 -d -1 -p RTS -e 44 -c 2 -a 0 -i 0 -k MAC
+ -t 2.570558486 -s 0 -d -1 -p CTS -e 38 -c 2 -a 0 -i 0 -k MAC 
- -t 2.570558486 -s 0 -d -1 -p CTS -e 38 -c 2 -a 0 -i 0 -k MAC
h -t 2.570558486 -s 0 -d -1 -p CTS -e 38 -c 2 -a 0 -i 0 -k MAC
r -t 2.570863806 -s 3 -d -1 -p CTS -e 38 -c 2 -a 0 -i 0 -k MAC
+ -t 2.570873806 -s 3 -d -1 -p ARP -e 86 -c 2 -a 0 -i 0 -k MAC 
- -t 2.570873806 -s 3 -d -1 -p ARP -e 86 -c 2 -a 0 -i 0 -k MAC
h -t 2.570873806 -s 3 -d -1 -p ARP -e 86 -c 2 -a 0 -i 0 -k MAC
r -t 2.571563126 -s 0 -d -1 -p ARP -e 28 -c 2 -a 0 -i 0 -k MAC
+ -t 2.571573126 -s 0 -d -1 -p ACK -e 38 -c 2 -a 0 -i 0 -k MAC 
- -t 2.571573126 -s 0 -d -1 -p ACK -e 38 -c 2 -a 0 -i 0 -k MAC
h -t 2.571573126 -s 0 -d -1 -p ACK -e 38 -c 2 -a 0 -i 0 -k MAC
r -t 2.571878447 -s 3 -d -1 -p ACK -e 38 -c 2 -a 0 -i 0 -k MAC
+ -t 2.572067126 -s 0 -d -1 -p RTS -e 44 -c 2 -a 0 -i 0 -k MAC 
- -t 2.572067126 -s 0 -d -1 -p RTS -e 44 -c 2 -a 0 -i 0 -k MAC
h -t 2.572067126 -s 0 -d -1 -p RTS -e 44 -c 2 -a 0 -i 0 -k MAC
r -t 2.572420447 -s 3 -d -1 -p RTS -e 44 -c 2 -a 0 -i 0 -k MAC
+ -t 2.572430447 -s 3 -d -1 -p CTS -e 38 -c 2 -a 0 -i 0 -k MAC 
- -t 2.572430447 -s 3 -d -1 -p CTS -e 38 -c 2 -a 0 -i 0 -k MAC
h -t 2.572430447 -s 3 -d -1 -p CTS -e 38 -c 2 -a 0 -i 0 -k MAC
r -t 2.572735767 -s 0 -d -1 -p CTS -e 38 -c 2 -a 0 -i 0 -k MAC
+ -t 2.572745767 -s 0 -d 3 -p AOMDV -e 110 -c 2 -a 0 -i 0 -k MAC 
- -t 2.572745767 -s 0 -d 3 -p AOMDV -e 110 -c 2 -a 0 -i 0 -k MAC
h -t 2.572745767 -s 0 -d 3 -p AOMDV -e 110 -c 2 -a 0 -i 0 -k MAC
r -t 2.573627087 -s 3 -d 3 -p AOMDV -e 52 -c 2 -a 0 -i 0 -k MAC
+ -t 2.573637087 -s 3 -d -1 -p ACK -e 38 -c 2 -a 0 -i 0 -k MAC 
- -t 2.573637087 -s 3 -d -1 -p ACK -e 38 -c 2 -a 0 -i 0 -k MAC
h -t 2.573637087 -s 3 -d -1 -p ACK -e 38 -c 2 -a 0 -i 0 -k MAC
+ -t 2.573652087 -s 3 -d 0 -p cbr -e 532 -c 2 -a 0 -i 0 -k RTR 
- -t 2.573652087 -s 3 -d 0 -p cbr -e 532 -c 2 -a 0 -i 0 -k RTR
h -t 2.573652087 -s 3 -d 0 -p cbr -e 532 -c 2 -a 0 -i 0 -k RTR
r -t 2.573942407 -s 0 -d -1 -p ACK -e 38 -c 2 -a 0 -i 0 -k MAC
+ -t 2.574271087 -s 3 -d -1 -p RTS -e 44 -c 2 -a 0 -i 0 -k MAC 
- -t 2.574271087 -s 3 -d -1 -p RTS -e 44 -c 2 -a 0 -i 0 -k MAC
h -t 2.574271087 -s 3 -d -1 -p RTS -e 44 -c 2 -a 0 -i 0 -k MAC
r -t 2.574624407 -s 0 -d -1 -p RTS -e 44 -c 2 -a 0 -i 0 -k MAC
+ -t 2.574634407 -s 0 -d -1 -p CTS -e 38 -c 2 -a 0 -i 0 -k MAC 
- -t 2.574634407 -s 0 -d -1 -p CTS -e 38 -c 2 -a 0 -i 0 -k MAC
h -t 2.574634407 -s 0 -d -1 -p CTS -e 38 -c 2 -a 0 -i 0 -k MAC
r -t 2.574939727 -s 3 -d -1 -p CTS -e 38 -c 2 -a 0 -i 0 -k MAC
+ -t 2.574949727 -s 3 -d 0 -p cbr -e 590 -c 2 -a 0 -i 0 -k MAC 
- -t 2.574949727 -s 3 -d 0 -p cbr -e 590 -c 2 -a 0 -i 0 -k MAC
h -t 2.574949727 -s 3 -d 0 -p cbr -e 590 -c 2 -a 0 -i 0 -k MAC
r -t 2.579671048 -s 0 -d 0 -p cbr -e 532 -c 2 -a 0 -i 0 -k MAC
+ -t 2.579681048 -s 0 -d -1 -p ACK -e 38 -c 2 -a 0 -i 0 -k MAC 
- -t 2.579681048 -s 0 -d -1 -p ACK -e 38 -c 2 -a 0 -i 0 -k MAC
h -t 2.579681048 -s 0 -d -1 -p ACK -e 38 -c 2 -a 0 -i 0 -k MAC
+ -t 2.579696048 -s 0 -d 4 -p cbr -e 532 -c 2 -a 0 -i 0 -k RTR 
- -t 2.579696048 -s 0 -d 4 -p cbr -e 532 -c 2 -a 0 -i 0 -k RTR
h -t 2.579696048 -s 0 -d 4 -p cbr -e 532 -c 2 -a 0 -i 0 -k RTR
r -t 2.579986368 -s 3 -d -1 -p ACK -e 38 -c 2 -a 0 -i 0 -k MAC
+ -t 2.580135048 -s 0 -d -1 -p RTS -e 44 -c 2 -a 0 -i 0 -k MAC 
- -t 2.580135048 -s 0 -d -1 -p RTS -e 44 -c 2 -a 0 -i 0 -k MAC
h -t 2.580135048 -s 0 -d -1 -p RTS -e 44 -c 2 -a 0 -i 0 -k MAC
r -t 2.580488262 -s 4 -d -1 -p RTS -e 44 -c 2 -a 0 -i 0 -k MAC
+ -t 2.580498262 -s 4 -d -1 -p CTS -e 38 -c 2 -a 0 -i 0 -k MAC 
- -t 2.580498262 -s 4 -d -1 -p CTS -e 38 -c 2 -a 0 -i 0 -k MAC
h -t 2.580498262 -s 4 -d -1 -p CTS -e 38 -c 2 -a 0 -i 0 -k MAC
r -t 2.580803477 -s 0 -d -1 -p CTS -e 38 -c 2 -a 0 -i 0 -k MAC
+ -t 2.580813477 -s 0 -d 4 -p cbr -e 590 -c 2 -a 0 -i 0 -k MAC 
- -t 2.580813477 -s 0 -d 4 -p cbr -e 590 -c 2 -a 0 -i 0 -k MAC
h -t 2.580813477 -s 0 -d 4 -p cbr -e 590 -c 2 -a 0 -i 0 -k MAC
r -t 2.585534691 -s 4 -d 4 -p cbr -e 532 -c 2 -a 0 -i 0 -k MAC
+ -t 2.585544691 -s 4 -d -1 -p ACK -e 38 -c 2 -a 0 -i 0 -k MAC 
- -t 2.585544691 -s 4 -d -1 -p ACK -e 38 -c 2 -a 0 -i 0 -k MAC
h -t 2.585544691 -s 4 -d -1 -p ACK -e 38 -c 2 -a 0 -i 0 -k MAC
r -t 2.585559691 -s 4 -d 4 -p cbr -e 532 -c 2 -a 0 -i 0 -k AGT
r -t 2.585849905 -s 0 -d -1 -p ACK -e 38 -c 2 -a 0 -i 0 -k MAC
+ -t 2.679600528 -s 3 -d -1 -p cbr -e 512 -c 2 -a 0 -i 1 -k AGT 
- -t 2.679600528 -s 3 -d -1 -p cbr -e 512 -c 2 -a 0 -i 1 -k AGT
h -t 2.679600528 -s 3 -d -1 -p cbr -e 512 -c 2 -a 0 -i 1 -k AGT
+ -t 2.679600528 -s 3 -d 0 -p cbr -e 532 -c 2 -a 0 -i 1 -k RTR 
- -t 2.679600528 -s 3 -d 0 -p cbr -e 532 -c 2 -a 0 -i 1 -k RTR
h -t 2.679600528 -s 3 -d 0 -p cbr -e 532 -c 2 -a 0 -i 1 -k RTR
+ -t 2.680255528 -s 3 -d -1 -p RTS -e 44 -c 2 -a 0 -i 0 -k MAC 
- -t 2.680255528 -s 3 -d -1 -p RTS -e 44 -c 2 -a 0 -i 0 -k MAC
h -t 2.680255528 -s 3 -d -1 -p RTS -e 44 -c 2 -a 0 -i 0 -k MAC
r -t 2.680608849 -s 0 -d -1 -p RTS -e 44 -c 2 -a 0 -i 0 -k MAC
+ -t 2.680618849 -s 0 -d -1 -p CTS -e 38 -c 2 -a 0 -i 0 -k MAC 
- -t 2.680618849 -s 0 -d -1 -p CTS -e 38 -c 2 -a 0 -i 0 -k MAC
h -t 2.680618849 -s 0 -d -1 -p CTS -e 38 -c 2 -a 0 -i 0 -k MAC
r -t 2.680924169 -s 3 -d -1 -p CTS -e 38 -c 2 -a 0 -i 0 -k MAC
+ -t 2.680934169 -s 3 -d 0 -p cbr -e 590 -c 2 -a 0 -i 1 -k MAC 
- -t 2.680934169 -s 3 -d 0 -p cbr -e 590 -c 2 -a 0 -i 1 -k MAC
h -t 2.680934169 -s 3 -d 0 -p cbr -e 590 -c 2 -a 0 -i 1 -k MAC
r -t 2.685655489 -s 0 -d 0 -p cbr -e 532 -c 2 -a 0 -i 1 -k MAC
+ -t 2.685665489 -s 0 -d -1 -p ACK -e 38 -c 2 -a 0 -i 0 -k MAC 
- -t 2.685665489 -s 0 -d -1 -p ACK -e 38 -c 2 -a 0 -i 0 -k MAC
h -t 2.685665489 -s 0 -d -1 -p ACK -e 38 -c 2 -a 0 -i 0 -k MAC
+ -t 2.685680489 -s 0 -d 4 -p cbr -e 532 -c 2 -a 0 -i 1 -k RTR 
- -t 2.685680489 -s 0 -d 4 -p cbr -e 532 -c 2 -a 0 -i 1 -k RTR
h -t 2.685680489 -s 0 -d 4 -p cbr -e 532 -c 2 -a 0 -i 1 -k RTR
r -t 2.685970809 -s 3 -d -1 -p ACK -e 38 -c 2 -a 0 -i 0 -k MAC
+ -t 2.686079489 -s 0 -d -1 -p RTS -e 44 -c 2 -a 0 -i 0 -k MAC 
- -t 2.686079489 -s 0 -d -1 -p RTS -e 44 -c 2 -a 0 -i 0 -k MAC
h -t 2.686079489 -s 0 -d -1 -p RTS -e 44 -c 2 -a 0 -i 0 -k MAC
r -t 2.686432703 -s 4 -d -1 -p RTS -e 44 -c 2 -a 0 -i 0 -k MAC
+ -t 2.686442703 -s 4 -d -1 -p CTS -e 38 -c 2 -a 0 -i 0 -k MAC 
- -t 2.686442703 -s 4 -d -1 -p CTS -e 38 -c 2 -a 0 -i 0 -k MAC
h -t 2.686442703 -s 4 -d -1 -p CTS -e 38 -c 2 -a 0 -i 0 -k MAC
r -t 2.686747918 -s 0 -d -1 -p CTS -e 38 -c 2 -a 0 -i 0 -k MAC
+ -t 2.686757918 -s 0 -d 4 -p cbr -e 590 -c 2 -a 0 -i 1 -k MAC 
- -t 2.686757918 -s 0 -d 4 -p cbr -e 590 -c 2 -a 0 -i 1 -k MAC
h -t 2.686757918 -s 0 -d 4 -p cbr -e 590 -c 2 -a 0 -i 1 -k MAC
r -t 2.691479132 -s 4 -d 4 -p cbr -e 532 -c 2 -a 0 -i 1 -k MAC
+ -t 2.691489132 -s 4 -d -1 -p ACK -e 38 -c 2 -a 0 -i 0 -k MAC 
- -t 2.691489132 -s 4 -d -1 -p ACK -e 38 -c 2 -a 0 -i 0 -k MAC
h -t 2.691489132 -s 4 -d -1 -p ACK -e 38 -c 2 -a 0 -i 0 -k MAC
r -t 2.691504132 -s 4 -d 4 -p cbr -e 532 -c 2 -a 0 -i 1 -k AGT
r -t 2.691794347 -s 0 -d -1 -p ACK -e 38 -c 2 -a 0 -i 0 -k MAC
+ -t 2.723696640 -s 3 -d -1 -p AOMDV -e 44 -c 2 -a 0 -i 0 -k RTR 
- -t 2.723696640 -s 3 -d -1 -p AOMDV -e 44 -c 2 -a 0 -i 0 -k RTR
h -t 2.723696640 -s 3 -d -1 -p AOMDV -e 44 -c 2 -a 0 -i 0 -k RTR
+ -t 2.724051640 -s 3 -d -1 -p AOMDV -e 102 -c 2 -a 0 -i 0 -k MAC 
- -t 2.724051640 -s 3 -d -1 -p AOMDV -e 102 -c 2 -a 0 -i 0 -k MAC
h -t 2.724051640 -s 3 -d -1 -p AOMDV -e 102 -c 2 -a 0 -i 0 -k MAC
r -t 2.724868960 -s 0 -d -1 -p AOMDV -e 44 -c 2 -a 0 -i 0 -k MAC
r -t 2.724893960 -s 0 -d -1 -p AOMDV -e 44 -c 2 -a 0 -i 0 -k RTR
+ -t 2.731820219 -s 0 -d -1 -p AOMDV -e 44 -c 2 -a 0 -i 0 -k RTR 
- -t 2.731820219 -s 0 -d -1 -p AOMDV -e 44 -c 2 -a 0 -i 0 -k RTR
h -t 2.731820219 -s 0 -d -1 -p AOMDV -e 44 -c 2 -a 0 -i 0 -k RTR
+ -t 2.732375219 -s 0 -d -1 -p AOMDV -e 102 -c 2 -a 0 -i 0 -k MAC 
- -t 2.732375219 -s 0 -d -1 -p AOMDV -e 102 -c 2 -a 0 -i 0 -k MAC
h -t 2.732375219 -s 0 -d -1 -p AOMDV -e 102 -c 2 -a 0 -i 0 -k MAC
r -t 2.733192158 -s 2 -d -1 -p AOMDV -e 44 -c 2 -a 0 -i 0 -k MAC
r -t 2.733192433 -s 4 -d -1 -p AOMDV -e 44 -c 2 -a 0 -i 0 -k MAC
r -t 2.733192539 -s 3 -d -1 -p AOMDV -e 44 -c 2 -a 0 -i 0 -k MAC
r -t 2.733217158 -s 2 -d -1 -p AOMDV -e 44 -c 2 -a 0 -i 0 -k RTR
r -t 2.733217433 -s 4 -d -1 -p AOMDV -e 44 -c 2 -a 0 -i 0 -k RTR
r -t 2.733217539 -s 3 -d -1 -p AOMDV -e 44 -c 2 -a 0 -i 0 -k RTR
+ -t 2.957870093 -s 3 -d -1 -p cbr -e 512 -c 2 -a 0 -i 2 -k AGT 
- -t 2.957870093 -s 3 -d -1 -p cbr -e 512 -c 2 -a 0 -i 2 -k AGT
h -t 2.957870093 -s 3 -d -1 -p cbr -e 512 -c 2 -a 0 -i 2 -k AGT
+ -t 2.957870093 -s 3 -d 0 -p cbr -e 532 -c 2 -a 0 -i 2 -k RTR 
- -t 2.957870093 -s 3 -d 0 -p cbr -e 532 -c 2 -a 0 -i 2 -k RTR
h -t 2.957870093 -s 3 -d 0 -p cbr -e 532 -c 2 -a 0 -i 2 -k RTR
+ -t 2.958265093 -s 3 -d -1 -p RTS -e 44 -c 2 -a 0 -i 0 -k MAC 
- -t 2.958265093 -s 3 -d -1 -p RTS -e 44 -c 2 -a 0 -i 0 -k MAC
h -t 2.958265093 -s 3 -d -1 -p RTS -e 44 -c 2 -a 0 -i 0 -k MAC
r -t 2.958618413 -s 0 -d -1 -p RTS -e 44 -c 2 -a 0 -i 0 -k MAC
+ -t 2.958628413 -s 0 -d -1 -p CTS -e 38 -c 2 -a 0 -i 0 -k MAC 
- -t 2.958628413 -s 0 -d -1 -p CTS -e 38 -c 2 -a 0 -i 0 -k MAC
h -t 2.958628413 -s 0 -d -1 -p CTS -e 38 -c 2 -a 0 -i 0 -k MAC
r -t 2.958933733 -s 3 -d -1 -p CTS -e 38 -c 2 -a 0 -i 0 -k MAC
+ -t 2.958943733 -s 3 -d 0 -p cbr -e 590 -c 2 -a 0 -i 2 -k MAC 
- -t 2.958943733 -s 3 -d 0 -p cbr -e 590 -c 2 -a 0 -i 2 -k MAC
h -t 2.958943733 -s 3 -d 0 -p cbr -e 590 -c 2 -a 0 -i 2 -k MAC
r -t 2.963665053 -s 0 -d 0 -p cbr -e 532 -c 2 -a 0 -i 2 -k MAC
+ -t 2.963675053 -s 0 -d -1 -p ACK -e 38 -c 2 -a 0 -i 0 -k MAC 
- -t 2.963675053 -s 0 -d -1 -p ACK -e 38 -c 2 -a 0 -i 0 -k MAC
h -t 2.963675053 -s 0 -d -1 -p ACK -e 38 -c 2 -a 0 -i 0 -k MAC
+ -t 2.963690053 -s 0 -d 4 -p cbr -e 532 -c 2 -a 0 -i 2 -k RTR 
- -t 2.963690053 -s 0 -d 4 -p cbr -e 532 -c 2 -a 0 -i 2 -k RTR
h -t 2.963690053 -s 0 -d 4 -p cbr -e 532 -c 2 -a 0 -i 2 -k RTR
r -t 2.963980373 -s 3 -d -1 -p ACK -e 38 -c 2 -a 0 -i 0 -k MAC
+ -t 2.964189053 -s 0 -d -1 -p RTS -e 44 -c 2 -a 0 -i 0 -k MAC 
- -t 2.964189053 -s 0 -d -1 -p RTS -e 44 -c 2 -a 0 -i 0 -k MAC
h -t 2.964189053 -s 0 -d -1 -p RTS -e 44 -c 2 -a 0 -i 0 -k MAC
r -t 2.964542268 -s 4 -d -1 -p RTS -e 44 -c 2 -a 0 -i 0 -k MAC
+ -t 2.964552268 -s 4 -d -1 -p CTS -e 38 -c 2 -a 0 -i 0 -k MAC 
- -t 2.964552268 -s 4 -d -1 -p CTS -e 38 -c 2 -a 0 -i 0 -k MAC
h -t 2.964552268 -s 4 -d -1 -p CTS -e 38 -c 2 -a 0 -i 0 -k MAC
r -t 2.964857482 -s 0 -d -1 -p CTS -e 38 -c 2 -a 0 -i 0 -k MAC
+ -t 2.964867482 -s 0 -d 4 -p cbr -e 590 -c 2 -a 0 -i 2 -k MAC 
- -t 2.964867482 -s 0 -d 4 -p cbr -e 590 -c 2 -a 0 -i 2 -k MAC
h -t 2.964867482 -s 0 -d 4 -p cbr -e 590 -c 2 -a 0 -i 2 -k MAC
r -t 2.969588697 -s 4 -d 4 -p cbr -e 532 -c 2 -a 0 -i 2 -k MAC
+ -t 2.969598697 -s 4 -d -1 -p ACK -e 38 -c 2 -a 0 -i 0 -k MAC 
- -t 2.969598697 -s 4 -d -1 -p ACK -e 38 -c 2 -a 0 -i 0 -k MAC
h -t 2.969598697 -s 4 -d -1 -p ACK -e 38 -c 2 -a 0 -i 0 -k MAC
r -t 2.969613697 -s 4 -d 4 -p cbr -e 532 -c 2 -a 0 -i 2 -k AGT
r -t 2.969903911 -s 0 -d -1 -p ACK -e 38 -c 2 -a 0 -i 0 -k MAC
+ -t 3.006049335 -s 4 -d -1 -p AOMDV -e 44 -c 2 -a 0 -i 0 -k RTR 
- -t 3.006049335 -s 4 -d -1 -p AOMDV -e 44 -c 2 -a 0 -i 0 -k RTR
h -t 3.006049335 -s 4 -d -1 -p AOMDV -e 44 -c 2 -a 0 -i 0 -k RTR
+ -t 3.006124335 -s 4 -d -1 -p AOMDV -e 102 -c 2 -a 0 -i 0 -k MAC 
- -t 3.006124335 -s 4 -d -1 -p AOMDV -e 102 -c 2 -a 0 -i 0 -k MAC
h -t 3.006124335 -s 4 -d -1 -p AOMDV -e 102 -c 2 -a 0 -i 0 -k MAC
r -t 3.006940614 -s 2 -d -1 -p AOMDV -e 44 -c 2 -a 0 -i 0 -k MAC
r -t 3.006941550 -s 0 -d -1 -p AOMDV -e 44 -c 2 -a 0 -i 0 -k MAC
r -t 3.006965614 -s 2 -d -1 -p AOMDV -e 44 -c 2 -a 0 -i 0 -k RTR
r -t 3.006966550 -s 0 -d -1 -p AOMDV -e 44 -c 2 -a 0 -i 0 -k RTR
+ -t 3.233201227 -s 3 -d -1 -p cbr -e 512 -c 2 -a 0 -i 3 -k AGT 
- -t 3.233201227 -s 3 -d -1 -p cbr -e 512 -c 2 -a 0 -i 3 -k AGT
h -t 3.233201227 -s 3 -d -1 -p cbr -e 512 -c 2 -a 0 -i 3 -k AGT
+ -t 3.233201227 -s 3 -d 0 -p cbr -e 532 -c 2 -a 0 -i 3 -k RTR 
- -t 3.233201227 -s 3 -d 0 -p cbr -e 532 -c 2 -a 0 -i 3 -k RTR
h -t 3.233201227 -s 3 -d 0 -p cbr -e 532 -c 2 -a 0 -i 3 -k RTR
+ -t 3.233296227 -s 3 -d -1 -p RTS -e 44 -c 2 -a 0 -i 0 -k MAC 
- -t 3.233296227 -s 3 -d -1 -p RTS -e 44 -c 2 -a 0 -i 0 -k MAC
h -t 3.233296227 -s 3 -d -1 -p RTS -e 44 -c 2 -a 0 -i 0 -k MAC
r -t 3.233649548 -s 0 -d -1 -p RTS -e 44 -c 2 -a 0 -i 0 -k MAC
+ -t 3.233659548 -s 0 -d -1 -p CTS -e 38 -c 2 -a 0 -i 0 -k MAC 
- -t 3.233659548 -s 0 -d -1 -p CTS -e 38 -c 2 -a 0 -i 0 -k MAC
h -t 3.233659548 -s 0 -d -1 -p CTS -e 38 -c 2 -a 0 -i 0 -k MAC
r -t 3.233964868 -s 3 -d -1 -p CTS -e 38 -c 2 -a 0 -i 0 -k MAC
+ -t 3.233974868 -s 3 -d 0 -p cbr -e 590 -c 2 -a 0 -i 3 -k MAC 
- -t 3.233974868 -s 3 -d 0 -p cbr -e 590 -c 2 -a 0 -i 3 -k MAC
h -t 3.233974868 -s 3 -d 0 -p cbr -e 590 -c 2 -a 0 -i 3 -k MAC
r -t 3.238696188 -s 0 -d 0 -p cbr -e 532 -c 2 -a 0 -i 3 -k MAC
+ -t 3.238706188 -s 0 -d -1 -p ACK -e 38 -c 2 -a 0 -i 0 -k MAC 
- -t 3.238706188 -s 0 -d -1 -p ACK -e 38 -c 2 -a 0 -i 0 -k MAC
h -t 3.238706188 -s 0 -d -1 -p ACK -e 38 -c 2 -a 0 -i 0 -k MAC
+ -t 3.238721188 -s 0 -d 4 -p cbr -e 532 -c 2 -a 0 -i 3 -k RTR 
- -t 3.238721188 -s 0 -d 4 -p cbr -e 532 -c 2 -a 0 -i 3 -k RTR
h -t 3.238721188 -s 0 -d 4 -p cbr -e 532 -c 2 -a 0 -i 3 -k RTR
r -t 3.239011508 -s 3 -d -1 -p ACK -e 38 -c 2 -a 0 -i 0 -k MAC
+ -t 3.239540188 -s 0 -d -1 -p RTS -e 44 -c 2 -a 0 -i 0 -k MAC 
- -t 3.239540188 -s 0 -d -1 -p RTS -e 44 -c 2 -a 0 -i 0 -k MAC
h -t 3.239540188 -s 0 -d -1 -p RTS -e 44 -c 2 -a 0 -i 0 -k MAC
r -t 3.239893402 -s 4 -d -1 -p RTS -e 44 -c 2 -a 0 -i 0 -k MAC
+ -t 3.239903402 -s 4 -d -1 -p CTS -e 38 -c 2 -a 0 -i 0 -k MAC 
- -t 3.239903402 -s 4 -d -1 -p CTS -e 38 -c 2 -a 0 -i 0 -k MAC
h -t 3.239903402 -s 4 -d -1 -p CTS -e 38 -c 2 -a 0 -i 0 -k MAC
r -t 3.240208617 -s 0 -d -1 -p CTS -e 38 -c 2 -a 0 -i 0 -k MAC
+ -t 3.240218617 -s 0 -d 4 -p cbr -e 590 -c 2 -a 0 -i 3 -k MAC 
- -t 3.240218617 -s 0 -d 4 -p cbr -e 590 -c 2 -a 0 -i 3 -k MAC
h -t 3.240218617 -s 0 -d 4 -p cbr -e 590 -c 2 -a 0 -i 3 -k MAC
r -t 3.244939831 -s 4 -d 4 -p cbr -e 532 -c 2 -a 0 -i 3 -k MAC
+ -t 3.244949831 -s 4 -d -1 -p ACK -e 38 -c 2 -a 0 -i 0 -k MAC 
- -t 3.244949831 -s 4 -d -1 -p ACK -e 38 -c 2 -a 0 -i 0 -k MAC
h -t 3.244949831 -s 4 -d -1 -p ACK -e 38 -c 2 -a 0 -i 0 -k MAC
r -t 3.244964831 -s 4 -d 4 -p cbr -e 532 -c 2 -a 0 -i 3 -k AGT
r -t 3.245255046 -s 0 -d -1 -p ACK -e 38 -c 2 -a 0 -i 0 -k MAC
+ -t 3.487740375 -s 3 -d -1 -p cbr -e 512 -c 2 -a 0 -i 4 -k AGT 
- -t 3.487740375 -s 3 -d -1 -p cbr -e 512 -c 2 -a 0 -i 4 -k AGT
h -t 3.487740375 -s 3 -d -1 -p cbr -e 512 -c 2 -a 0 -i 4 -k AGT
+ -t 3.487740375 -s 3 -d 0 -p cbr -e 532 -c 2 -a 0 -i 4 -k RTR 
- -t 3.487740375 -s 3 -d 0 -p cbr -e 532 -c 2 -a 0 -i 4 -k RTR
h -t 3.487740375 -s 3 -d 0 -p cbr -e 532 -c 2 -a 0 -i 4 -k RTR
+ -t 3.487855375 -s 3 -d -1 -p RTS -e 44 -c 2 -a 0 -i 0 -k MAC 
- -t 3.487855375 -s 3 -d -1 -p RTS -e 44 -c 2 -a 0 -i 0 -k MAC
h -t 3.487855375 -s 3 -d -1 -p RTS -e 44 -c 2 -a 0 -i 0 -k MAC
r -t 3.488208695 -s 0 -d -1 -p RTS -e 44 -c 2 -a 0 -i 0 -k MAC
+ -t 3.488218695 -s 0 -d -1 -p CTS -e 38 -c 2 -a 0 -i 0 -k MAC 
- -t 3.488218695 -s 0 -d -1 -p CTS -e 38 -c 2 -a 0 -i 0 -k MAC
h -t 3.488218695 -s 0 -d -1 -p CTS -e 38 -c 2 -a 0 -i 0 -k MAC
r -t 3.488524015 -s 3 -d -1 -p CTS -e 38 -c 2 -a 0 -i 0 -k MAC
+ -t 3.488534015 -s 3 -d 0 -p cbr -e 590 -c 2 -a 0 -i 4 -k MAC 
- -t 3.488534015 -s 3 -d 0 -p cbr -e 590 -c 2 -a 0 -i 4 -k MAC
h -t 3.488534015 -s 3 -d 0 -p cbr -e 590 -c 2 -a 0 -i 4 -k MAC
r -t 3.493255335 -s 0 -d 0 -p cbr -e 532 -c 2 -a 0 -i 4 -k MAC
+ -t 3.493265335 -s 0 -d -1 -p ACK -e 38 -c 2 -a 0 -i 0 -k MAC 
- -t 3.493265335 -s 0 -d -1 -p ACK -e 38 -c 2 -a 0 -i 0 -k MAC
h -t 3.493265335 -s 0 -d -1 -p ACK -e 38 -c 2 -a 0 -i 0 -k MAC
+ -t 3.493280335 -s 0 -d 4 -p cbr -e 532 -c 2 -a 0 -i 4 -k RTR 
- -t 3.493280335 -s 0 -d 4 -p cbr -e 532 -c 2 -a 0 -i 4 -k RTR
h -t 3.493280335 -s 0 -d 4 -p cbr -e 532 -c 2 -a 0 -i 4 -k RTR
r -t 3.493570656 -s 3 -d -1 -p ACK -e 38 -c 2 -a 0 -i 0 -k MAC
+ -t 3.494079335 -s 0 -d -1 -p RTS -e 44 -c 2 -a 0 -i 0 -k MAC 
- -t 3.494079335 -s 0 -d -1 -p RTS -e 44 -c 2 -a 0 -i 0 -k MAC
h -t 3.494079335 -s 0 -d -1 -p RTS -e 44 -c 2 -a 0 -i 0 -k MAC
r -t 3.494432550 -s 4 -d -1 -p RTS -e 44 -c 2 -a 0 -i 0 -k MAC
+ -t 3.494442550 -s 4 -d -1 -p CTS -e 38 -c 2 -a 0 -i 0 -k MAC 
- -t 3.494442550 -s 4 -d -1 -p CTS -e 38 -c 2 -a 0 -i 0 -k MAC
h -t 3.494442550 -s 4 -d -1 -p CTS -e 38 -c 2 -a 0 -i 0 -k MAC
r -t 3.494747764 -s 0 -d -1 -p CTS -e 38 -c 2 -a 0 -i 0 -k MAC
+ -t 3.494757764 -s 0 -d 4 -p cbr -e 590 -c 2 -a 0 -i 4 -k MAC 
- -t 3.494757764 -s 0 -d 4 -p cbr -e 590 -c 2 -a 0 -i 4 -k MAC
h -t 3.494757764 -s 0 -d 4 -p cbr -e 590 -c 2 -a 0 -i 4 -k MAC
r -t 3.499478979 -s 4 -d 4 -p cbr -e 532 -c 2 -a 0 -i 4 -k MAC
+ -t 3.499488979 -s 4 -d -1 -p ACK -e 38 -c 2 -a 0 -i 0 -k MAC 
- -t 3.499488979 -s 4 -d -1 -p ACK -e 38 -c 2 -a 0 -i 0 -k MAC
h -t 3.499488979 -s 4 -d -1 -p ACK -e 38 -c 2 -a 0 -i 0 -k MAC
r -t 3.499503979 -s 4 -d 4 -p cbr -e 532 -c 2 -a 0 -i 4 -k AGT
r -t 3.499794193 -s 0 -d -1 -p ACK -e 38 -c 2 -a 0 -i 0 -k MAC
+ -t 3.606011758 -s 3 -d -1 -p cbr -e 512 -c 2 -a 0 -i 5 -k AGT 
- -t 3.606011758 -s 3 -d -1 -p cbr -e 512 -c 2 -a 0 -i 5 -k AGT
h -t 3.606011758 -s 3 -d -1 -p cbr -e 512 -c 2 -a 0 -i 5 -k AGT
+ -t 3.606011758 -s 3 -d 0 -p cbr -e 532 -c 2 -a 0 -i 5 -k RTR 
- -t 3.606011758 -s 3 -d 0 -p cbr -e 532 -c 2 -a 0 -i 5 -k RTR
h -t 3.606011758 -s 3 -d 0 -p cbr -e 532 -c 2 -a 0 -i 5 -k RTR
+ -t 3.606166758 -s 3 -d -1 -p RTS -e 44 -c 2 -a 0 -i 0 -k MAC 
- -t 3.606166758 -s 3 -d -1 -p RTS -e 44 -c 2 -a 0 -i 0 -k MAC
h -t 3.606166758 -s 3 -d -1 -p RTS -e 44 -c 2 -a 0 -i 0 -k MAC
r -t 3.606520078 -s 0 -d -1 -p RTS -e 44 -c 2 -a 0 -i 0 -k MAC
+ -t 3.606530078 -s 0 -d -1 -p CTS -e 38 -c 2 -a 0 -i 0 -k MAC 
- -t 3.606530078 -s 0 -d -1 -p CTS -e 38 -c 2 -a 0 -i 0 -k MAC
h -t 3.606530078 -s 0 -d -1 -p CTS -e 38 -c 2 -a 0 -i 0 -k MAC
r -t 3.606835398 -s 3 -d -1 -p CTS -e 38 -c 2 -a 0 -i 0 -k MAC
+ -t 3.606845398 -s 3 -d 0 -p cbr -e 590 -c 2 -a 0 -i 5 -k MAC 
- -t 3.606845398 -s 3 -d 0 -p cbr -e 590 -c 2 -a 0 -i 5 -k MAC
h -t 3.606845398 -s 3 -d 0 -p cbr -e 590 -c 2 -a 0 -i 5 -k MAC
+ -t 3.610317088 -s 0 -d -1 -p AOMDV -e 44 -c 2 -a 0 -i 0 -k RTR 
- -t 3.610317088 -s 0 -d -1 -p AOMDV -e 44 -c 2 -a 0 -i 0 -k RTR
h -t 3.610317088 -s 0 -d -1 -p AOMDV -e 44 -c 2 -a 0 -i 0 -k RTR
r -t 3.611566719 -s 0 -d 0 -p cbr -e 532 -c 2 -a 0 -i 5 -k MAC
+ -t 3.611576719 -s 0 -d -1 -p ACK -e 38 -c 2 -a 0 -i 0 -k MAC 
- -t 3.611576719 -s 0 -d -1 -p ACK -e 38 -c 2 -a 0 -i 0 -k MAC
h -t 3.611576719 -s 0 -d -1 -p ACK -e 38 -c 2 -a 0 -i 0 -k MAC
+ -t 3.611591719 -s 0 -d 4 -p cbr -e 532 -c 2 -a 0 -i 5 -k RTR 
- -t 3.611591719 -s 0 -d 4 -p cbr -e 532 -c 2 -a 0 -i 5 -k RTR
h -t 3.611591719 -s 0 -d 4 -p cbr -e 532 -c 2 -a 0 -i 5 -k RTR
r -t 3.611882039 -s 3 -d -1 -p ACK -e 38 -c 2 -a 0 -i 0 -k MAC
+ -t 3.612130719 -s 0 -d -1 -p AOMDV -e 102 -c 2 -a 0 -i 0 -k MAC 
- -t 3.612130719 -s 0 -d -1 -p AOMDV -e 102 -c 2 -a 0 -i 0 -k MAC
h -t 3.612130719 -s 0 -d -1 -p AOMDV -e 102 -c 2 -a 0 -i 0 -k MAC
r -t 3.612947658 -s 2 -d -1 -p AOMDV -e 44 -c 2 -a 0 -i 0 -k MAC
r -t 3.612947933 -s 4 -d -1 -p AOMDV -e 44 -c 2 -a 0 -i 0 -k MAC
r -t 3.612948039 -s 3 -d -1 -p AOMDV -e 44 -c 2 -a 0 -i 0 -k MAC
r -t 3.612972658 -s 2 -d -1 -p AOMDV -e 44 -c 2 -a 0 -i 0 -k RTR
r -t 3.612972933 -s 4 -d -1 -p AOMDV -e 44 -c 2 -a 0 -i 0 -k RTR
r -t 3.612973039 -s 3 -d -1 -p AOMDV -e 44 -c 2 -a 0 -i 0 -k RTR
+ -t 3.613336719 -s 0 -d -1 -p RTS -e 44 -c 2 -a 0 -i 0 -k MAC 
- -t 3.613336719 -s 0 -d -1 -p RTS -e 44 -c 2 -a 0 -i 0 -k MAC
h -t 3.613336719 -s 0 -d -1 -p RTS -e 44 -c 2 -a 0 -i 0 -k MAC
r -t 3.613689933 -s 4 -d -1 -p RTS -e 44 -c 2 -a 0 -i 0 -k MAC
+ -t 3.613699933 -s 4 -d -1 -p CTS -e 38 -c 2 -a 0 -i 0 -k MAC 
- -t 3.613699933 -s 4 -d -1 -p CTS -e 38 -c 2 -a 0 -i 0 -k MAC
h -t 3.613699933 -s 4 -d -1 -p CTS -e 38 -c 2 -a 0 -i 0 -k MAC
r -t 3.614005148 -s 0 -d -1 -p CTS -e 38 -c 2 -a 0 -i 0 -k MAC
+ -t 3.614015148 -s 0 -d 4 -p cbr -e 590 -c 2 -a 0 -i 5 -k MAC 
- -t 3.614015148 -s 0 -d 4 -p cbr -e 590 -c 2 -a 0 -i 5 -k MAC
h -t 3.614015148 -s 0 -d 4 -p cbr -e 590 -c 2 -a 0 -i 5 -k MAC
r -t 3.618736362 -s 4 -d 4 -p cbr -e 532 -c 2 -a 0 -i 5 -k MAC
+ -t 3.618746362 -s 4 -d -1 -p ACK -e 38 -c 2 -a 0 -i 0 -k MAC 
- -t 3.618746362 -s 4 -d -1 -p ACK -e 38 -c 2 -a 0 -i 0 -k MAC
h -t 3.618746362 -s 4 -d -1 -p ACK -e 38 -c 2 -a 0 -i 0 -k MAC
r -t 3.618761362 -s 4 -d 4 -p cbr -e 532 -c 2 -a 0 -i 5 -k AGT
r -t 3.619051576 -s 0 -d -1 -p ACK -e 38 -c 2 -a 0 -i 0 -k MAC
+ -t 3.641528019 -s 3 -d -1 -p AOMDV -e 44 -c 2 -a 0 -i 0 -k RTR 
- -t 3.641528019 -s 3 -d -1 -p AOMDV -e 44 -c 2 -a 0 -i 0 -k RTR
h -t 3.641528019 -s 3 -d -1 -p AOMDV -e 44 -c 2 -a 0 -i 0 -k RTR
+ -t 3.641663019 -s 3 -d -1 -p AOMDV -e 102 -c 2 -a 0 -i 0 -k MAC 
- -t 3.641663019 -s 3 -d -1 -p AOMDV -e 102 -c 2 -a 0 -i 0 -k MAC
h -t 3.641663019 -s 3 -d -1 -p AOMDV -e 102 -c 2 -a 0 -i 0 -k MAC
r -t 3.642480340 -s 0 -d -1 -p AOMDV -e 44 -c 2 -a 0 -i 0 -k MAC
r -t 3.642505340 -s 0 -d -1 -p AOMDV -e 44 -c 2 -a 0 -i 0 -k RTR
+ -t 3.743676021 -s 2 -d -1 -p AOMDV -e 44 -c 2 -a 0 -i 0 -k RTR 
- -t 3.743676021 -s 2 -d -1 -p AOMDV -e 44 -c 2 -a 0 -i 0 -k RTR
h -t 3.743676021 -s 2 -d -1 -p AOMDV -e 44 -c 2 -a 0 -i 0 -k RTR
+ -t 3.744351021 -s 2 -d -1 -p AOMDV -e 102 -c 2 -a 0 -i 0 -k MAC 
- -t 3.744351021 -s 2 -d -1 -p AOMDV -e 102 -c 2 -a 0 -i 0 -k MAC
h -t 3.744351021 -s 2 -d -1 -p AOMDV -e 102 -c 2 -a 0 -i 0 -k MAC
r -t 3.745167300 -s 4 -d -1 -p AOMDV -e 44 -c 2 -a 0 -i 0 -k MAC
r -t 3.745167960 -s 0 -d -1 -p AOMDV -e 44 -c 2 -a 0 -i 0 -k MAC
r -t 3.745192300 -s 4 -d -1 -p AOMDV -e 44 -c 2 -a 0 -i 0 -k RTR
r -t 3.745192960 -s 0 -d -1 -p AOMDV -e 44 -c 2 -a 0 -i 0 -k RTR
+ -t 3.853029983 -s 3 -d -1 -p cbr -e 512 -c 2 -a 0 -i 6 -k AGT 
- -t 3.853029983 -s 3 -d -1 -p cbr -e 512 -c 2 -a 0 -i 6 -k AGT
h -t 3.853029983 -s 3 -d -1 -p cbr -e 512 -c 2 -a 0 -i 6 -k AGT
+ -t 3.853029983 -s 3 -d 0 -p cbr -e 532 -c 2 -a 0 -i 6 -k RTR 
- -t 3.853029983 -s 3 -d 0 -p cbr -e 532 -c 2 -a 0 -i 6 -k RTR
h -t 3.853029983 -s 3 -d 0 -p cbr -e 532 -c 2 -a 0 -i 6 -k RTR
+ -t 3.853404983 -s 3 -d -1 -p RTS -e 44 -c 2 -a 0 -i 0 -k MAC 
- -t 3.853404983 -s 3 -d -1 -p RTS -e 44 -c 2 -a 0 -i 0 -k MAC
h -t 3.853404983 -s 3 -d -1 -p RTS -e 44 -c 2 -a 0 -i 0 -k MAC
r -t 3.853758303 -s 0 -d -1 -p RTS -e 44 -c 2 -a 0 -i 0 -k MAC
+ -t 3.853768303 -s 0 -d -1 -p CTS -e 38 -c 2 -a 0 -i 0 -k MAC 
- -t 3.853768303 -s 0 -d -1 -p CTS -e 38 -c 2 -a 0 -i 0 -k MAC
h -t 3.853768303 -s 0 -d -1 -p CTS -e 38 -c 2 -a 0 -i 0 -k MAC
r -t 3.854073624 -s 3 -d -1 -p CTS -e 38 -c 2 -a 0 -i 0 -k MAC
+ -t 3.854083624 -s 3 -d 0 -p cbr -e 590 -c 2 -a 0 -i 6 -k MAC 
- -t 3.854083624 -s 3 -d 0 -p cbr -e 590 -c 2 -a 0 -i 6 -k MAC
h -t 3.854083624 -s 3 -d 0 -p cbr -e 590 -c 2 -a 0 -i 6 -k MAC
r -t 3.858804944 -s 0 -d 0 -p cbr -e 532 -c 2 -a 0 -i 6 -k MAC
+ -t 3.858814944 -s 0 -d -1 -p ACK -e 38 -c 2 -a 0 -i 0 -k MAC 
- -t 3.858814944 -s 0 -d -1 -p ACK -e 38 -c 2 -a 0 -i 0 -k MAC
h -t 3.858814944 -s 0 -d -1 -p ACK -e 38 -c 2 -a 0 -i 0 -k MAC
+ -t 3.858829944 -s 0 -d 4 -p cbr -e 532 -c 2 -a 0 -i 6 -k RTR 
- -t 3.858829944 -s 0 -d 4 -p cbr -e 532 -c 2 -a 0 -i 6 -k RTR
h -t 3.858829944 -s 0 -d 4 -p cbr -e 532 -c 2 -a 0 -i 6 -k RTR
r -t 3.859120264 -s 3 -d -1 -p ACK -e 38 -c 2 -a 0 -i 0 -k MAC
+ -t 3.859468944 -s 0 -d -1 -p RTS -e 44 -c 2 -a 0 -i 0 -k MAC 