n -t * -s 0  -x 332.87478732828902 -y 479.98727854279701 -Z 0 -z 20  -v circle -c green
n -t * -s 1  -x 339.86853975631698 -y 261.776568589156 -Z 0 -z 20  -v circle -c green
n -t * -s 2  -x 485.61639210866099 -y 113.432343721839 -Z 0 -z 20  -v circle -c green
n -t * -s 3  -x 185.94820976192801 -y 249.386981914866 -Z 0 -z 20  -v circle -c green
n -t * -s 4  -x 485.612954364041 -y 205.02045171899999 -Z 0 -z 20  -v circle -c green
n -t * -s 5  -x 481.62713488062002 -y 41.080202219234998 -Z 0 -z 20  -v circle -c green
n -t * -s 6  -x 368.813695784949 -y 74.653514434567001 -Z 0 -z 20  -v circle -c green
n -t * -s 7  -x 86.924774823793001 -y 70.748657736862 -Z 0 -z 20  -v circle -c green
n -t * -s 8  -x 500 -y 0 -Z 0 -z 20  -v circle -c green
n -t * -s 9  -x 0 -y 500 -Z 0 -z 20  -v circle -c green
V -t * -v 1.0a5 -a 0
W -t * -x 530 -y 530
A -t * -n 1 -p 0 -o 0x7fffffff -c 30 -a 1
A -t * -h 1 -m 1073741823 -s 0
+ -t 2.556838879 -s 8 -d -1 -p cbr -e 512 -c 2 -a 0 -i 0 -k AGT 
- -t 2.556838879 -s 8 -d -1 -p cbr -e 512 -c 2 -a 0 -i 0 -k AGT
h -t 2.556838879 -s 8 -d -1 -p cbr -e 512 -c 2 -a 0 -i 0 -k AGT
+ -t 2.556838879 -s 8 -d -1 -p AOMDV -e 52 -c 2 -a 0 -i 0 -k RTR 
- -t 2.556838879 -s 8 -d -1 -p AOMDV -e 52 -c 2 -a 0 -i 0 -k RTR
h -t 2.556838879 -s 8 -d -1 -p AOMDV -e 52 -c 2 -a 0 -i 0 -k RTR
+ -t 2.557213879 -s 8 -d -1 -p AOMDV -e 110 -c 2 -a 0 -i 0 -k MAC 
- -t 2.557213879 -s 8 -d -1 -p AOMDV -e 110 -c 2 -a 0 -i 0 -k MAC
h -t 2.557213879 -s 8 -d -1 -p AOMDV -e 110 -c 2 -a 0 -i 0 -k MAC
r -t 2.558094029 -s 5 -d -1 -p AOMDV -e 52 -c 2 -a 0 -i 0 -k MAC
r -t 2.558094260 -s 2 -d -1 -p AOMDV -e 52 -c 2 -a 0 -i 0 -k MAC
r -t 2.558094382 -s 6 -d -1 -p AOMDV -e 52 -c 2 -a 0 -i 0 -k MAC
r -t 2.558094564 -s 4 -d -1 -p AOMDV -e 52 -c 2 -a 0 -i 0 -k MAC
r -t 2.558094902 -s 1 -d -1 -p AOMDV -e 52 -c 2 -a 0 -i 0 -k MAC
r -t 2.558119029 -s 5 -d -1 -p AOMDV -e 52 -c 2 -a 0 -i 0 -k RTR
r -t 2.558119260 -s 2 -d -1 -p AOMDV -e 52 -c 2 -a 0 -i 0 -k RTR
r -t 2.558119382 -s 6 -d -1 -p AOMDV -e 52 -c 2 -a 0 -i 0 -k RTR
r -t 2.558119564 -s 4 -d -1 -p AOMDV -e 52 -c 2 -a 0 -i 0 -k RTR
r -t 2.558119902 -s 1 -d -1 -p AOMDV -e 52 -c 2 -a 0 -i 0 -k RTR
+ -t 2.559211367 -s 6 -d -1 -p AOMDV -e 52 -c 2 -a 0 -i 0 -k RTR 
- -t 2.559211367 -s 6 -d -1 -p AOMDV -e 52 -c 2 -a 0 -i 0 -k RTR
h -t 2.559211367 -s 6 -d -1 -p AOMDV -e 52 -c 2 -a 0 -i 0 -k RTR
+ -t 2.559806367 -s 6 -d -1 -p AOMDV -e 110 -c 2 -a 0 -i 0 -k MAC 
- -t 2.559806367 -s 6 -d -1 -p AOMDV -e 110 -c 2 -a 0 -i 0 -k MAC
h -t 2.559806367 -s 6 -d -1 -p AOMDV -e 110 -c 2 -a 0 -i 0 -k MAC
+ -t 2.559993554 -s 1 -d -1 -p AOMDV -e 52 -c 2 -a 0 -i 0 -k RTR 
- -t 2.559993554 -s 1 -d -1 -p AOMDV -e 52 -c 2 -a 0 -i 0 -k RTR
h -t 2.559993554 -s 1 -d -1 -p AOMDV -e 52 -c 2 -a 0 -i 0 -k RTR
r -t 2.560686759 -s 5 -d -1 -p AOMDV -e 52 -c 2 -a 0 -i 0 -k MAC
r -t 2.560686777 -s 2 -d -1 -p AOMDV -e 52 -c 2 -a 0 -i 0 -k MAC
r -t 2.560686870 -s 8 -d -1 -p AOMDV -e 52 -c 2 -a 0 -i 0 -k MAC
r -t 2.560686950 -s 4 -d -1 -p AOMDV -e 52 -c 2 -a 0 -i 0 -k MAC
r -t 2.560686998 -s 1 -d -1 -p AOMDV -e 52 -c 2 -a 0 -i 0 -k MAC
r -t 2.560687210 -s 3 -d -1 -p AOMDV -e 52 -c 2 -a 0 -i 0 -k MAC
r -t 2.560687306 -s 7 -d -1 -p AOMDV -e 52 -c 2 -a 0 -i 0 -k MAC
r -t 2.560711759 -s 5 -d -1 -p AOMDV -e 52 -c 2 -a 0 -i 0 -k RTR
r -t 2.560711777 -s 2 -d -1 -p AOMDV -e 52 -c 2 -a 0 -i 0 -k RTR
r -t 2.560711870 -s 8 -d -1 -p AOMDV -e 52 -c 2 -a 0 -i 0 -k RTR
r -t 2.560711950 -s 4 -d -1 -p AOMDV -e 52 -c 2 -a 0 -i 0 -k RTR
r -t 2.560711998 -s 1 -d -1 -p AOMDV -e 52 -c 2 -a 0 -i 0 -k RTR
r -t 2.560712210 -s 3 -d -1 -p AOMDV -e 52 -c 2 -a 0 -i 0 -k RTR
r -t 2.560712306 -s 7 -d -1 -p AOMDV -e 52 -c 2 -a 0 -i 0 -k RTR
+ -t 2.560956998 -s 1 -d -1 -p AOMDV -e 110 -c 2 -a 0 -i 0 -k MAC 
- -t 2.560956998 -s 1 -d -1 -p AOMDV -e 110 -c 2 -a 0 -i 0 -k MAC
h -t 2.560956998 -s 1 -d -1 -p AOMDV -e 110 -c 2 -a 0 -i 0 -k MAC
+ -t 2.561296333 -s 7 -d -1 -p AOMDV -e 52 -c 2 -a 0 -i 0 -k RTR 
- -t 2.561296333 -s 7 -d -1 -p AOMDV -e 52 -c 2 -a 0 -i 0 -k RTR
h -t 2.561296333 -s 7 -d -1 -p AOMDV -e 52 -c 2 -a 0 -i 0 -k RTR
+ -t 2.561832523 -s 3 -d -1 -p AOMDV -e 52 -c 2 -a 0 -i 0 -k RTR 
- -t 2.561832523 -s 3 -d -1 -p AOMDV -e 52 -c 2 -a 0 -i 0 -k RTR
h -t 2.561832523 -s 3 -d -1 -p AOMDV -e 52 -c 2 -a 0 -i 0 -k RTR
r -t 2.561837512 -s 3 -d -1 -p AOMDV -e 52 -c 2 -a 0 -i 0 -k MAC
r -t 2.561837519 -s 4 -d -1 -p AOMDV -e 52 -c 2 -a 0 -i 0 -k MAC
r -t 2.561837629 -s 6 -d -1 -p AOMDV -e 52 -c 2 -a 0 -i 0 -k MAC
r -t 2.561837691 -s 2 -d -1 -p AOMDV -e 52 -c 2 -a 0 -i 0 -k MAC
r -t 2.561837725 -s 0 -d -1 -p AOMDV -e 52 -c 2 -a 0 -i 0 -k MAC
r -t 2.561837872 -s 5 -d -1 -p AOMDV -e 52 -c 2 -a 0 -i 0 -k MAC
r -t 2.561838021 -s 8 -d -1 -p AOMDV -e 52 -c 2 -a 0 -i 0 -k MAC
r -t 2.561838054 -s 7 -d -1 -p AOMDV -e 52 -c 2 -a 0 -i 0 -k MAC
r -t 2.561862512 -s 3 -d -1 -p AOMDV -e 52 -c 2 -a 0 -i 0 -k RTR
r -t 2.561862519 -s 4 -d -1 -p AOMDV -e 52 -c 2 -a 0 -i 0 -k RTR
r -t 2.561862629 -s 6 -d -1 -p AOMDV -e 52 -c 2 -a 0 -i 0 -k RTR
r -t 2.561862691 -s 2 -d -1 -p AOMDV -e 52 -c 2 -a 0 -i 0 -k RTR
r -t 2.561862725 -s 0 -d -1 -p AOMDV -e 52 -c 2 -a 0 -i 0 -k RTR
r -t 2.561862872 -s 5 -d -1 -p AOMDV -e 52 -c 2 -a 0 -i 0 -k RTR
r -t 2.561863021 -s 8 -d -1 -p AOMDV -e 52 -c 2 -a 0 -i 0 -k RTR
r -t 2.561863054 -s 7 -d -1 -p AOMDV -e 52 -c 2 -a 0 -i 0 -k RTR
+ -t 2.562008054 -s 7 -d -1 -p AOMDV -e 110 -c 2 -a 0 -i 0 -k MAC 
- -t 2.562008054 -s 7 -d -1 -p AOMDV -e 110 -c 2 -a 0 -i 0 -k MAC
h -t 2.562008054 -s 7 -d -1 -p AOMDV -e 110 -c 2 -a 0 -i 0 -k MAC
+ -t 2.562161639 -s 4 -d -1 -p AOMDV -e 52 -c 2 -a 0 -i 0 -k RTR 
- -t 2.562161639 -s 4 -d -1 -p AOMDV -e 52 -c 2 -a 0 -i 0 -k RTR
h -t 2.562161639 -s 4 -d -1 -p AOMDV -e 52 -c 2 -a 0 -i 0 -k RTR
+ -t 2.562174451 -s 2 -d -1 -p AOMDV -e 52 -c 2 -a 0 -i 0 -k RTR 
- -t 2.562174451 -s 2 -d -1 -p AOMDV -e 52 -c 2 -a 0 -i 0 -k RTR
h -t 2.562174451 -s 2 -d -1 -p AOMDV -e 52 -c 2 -a 0 -i 0 -k RTR
+ -t 2.562416639 -s 4 -d -1 -p AOMDV -e 110 -c 2 -a 0 -i 0 -k MAC 
- -t 2.562416639 -s 4 -d -1 -p AOMDV -e 110 -c 2 -a 0 -i 0 -k MAC
h -t 2.562416639 -s 4 -d -1 -p AOMDV -e 110 -c 2 -a 0 -i 0 -k MAC
d -t 2.562417160 -s 1 -d -1 -p AOMDV -e 110 -c 2 -a 0 -i 0 -k MAC
d -t 2.562417186 -s 5 -d -1 -p AOMDV -e 110 -c 2 -a 0 -i 0 -k MAC
d -t 2.562417223 -s 6 -d -1 -p AOMDV -e 110 -c 2 -a 0 -i 0 -k MAC
d -t 2.562417649 -s 3 -d -1 -p AOMDV -e 110 -c 2 -a 0 -i 0 -k MAC
+ -t 2.563093760 -s 0 -d -1 -p AOMDV -e 52 -c 2 -a 0 -i 0 -k RTR 
- -t 2.563093760 -s 0 -d -1 -p AOMDV -e 52 -c 2 -a 0 -i 0 -k RTR
h -t 2.563093760 -s 0 -d -1 -p AOMDV -e 52 -c 2 -a 0 -i 0 -k RTR
r -t 2.563296944 -s 2 -d -1 -p AOMDV -e 52 -c 2 -a 0 -i 0 -k MAC
d -t 2.563297160 -s 1 -d -1 -p AOMDV -e 110 -c 2 -a 0 -i 0 -k MAC
d -t 2.563297186 -s 5 -d -1 -p AOMDV -e 110 -c 2 -a 0 -i 0 -k MAC
d -t 2.563297223 -s 6 -d -1 -p AOMDV -e 110 -c 2 -a 0 -i 0 -k MAC
r -t 2.563297324 -s 8 -d -1 -p AOMDV -e 52 -c 2 -a 0 -i 0 -k MAC
d -t 2.563297649 -s 3 -d -1 -p AOMDV -e 110 -c 2 -a 0 -i 0 -k MAC
r -t 2.563297688 -s 0 -d -1 -p AOMDV -e 52 -c 2 -a 0 -i 0 -k MAC
r -t 2.563321944 -s 2 -d -1 -p AOMDV -e 52 -c 2 -a 0 -i 0 -k RTR
r -t 2.563322324 -s 8 -d -1 -p AOMDV -e 52 -c 2 -a 0 -i 0 -k RTR
r -t 2.563322688 -s 0 -d -1 -p AOMDV -e 52 -c 2 -a 0 -i 0 -k RTR
+ -t 2.563466944 -s 2 -d -1 -p AOMDV -e 110 -c 2 -a 0 -i 0 -k MAC 
- -t 2.563466944 -s 2 -d -1 -p AOMDV -e 110 -c 2 -a 0 -i 0 -k MAC
h -t 2.563466944 -s 2 -d -1 -p AOMDV -e 110 -c 2 -a 0 -i 0 -k MAC
r -t 2.564347186 -s 5 -d -1 -p AOMDV -e 52 -c 2 -a 0 -i 0 -k MAC
r -t 2.564347250 -s 4 -d -1 -p AOMDV -e 52 -c 2 -a 0 -i 0 -k MAC
r -t 2.564347325 -s 8 -d -1 -p AOMDV -e 52 -c 2 -a 0 -i 0 -k MAC
r -t 2.564347355 -s 6 -d -1 -p AOMDV -e 52 -c 2 -a 0 -i 0 -k MAC
r -t 2.564347638 -s 1 -d -1 -p AOMDV -e 52 -c 2 -a 0 -i 0 -k MAC
r -t 2.564348041 -s 3 -d -1 -p AOMDV -e 52 -c 2 -a 0 -i 0 -k MAC
r -t 2.564348268 -s 0 -d -1 -p AOMDV -e 52 -c 2 -a 0 -i 0 -k MAC
r -t 2.564372186 -s 5 -d -1 -p AOMDV -e 52 -c 2 -a 0 -i 0 -k RTR
r -t 2.564372250 -s 4 -d -1 -p AOMDV -e 52 -c 2 -a 0 -i 0 -k RTR
r -t 2.564372325 -s 8 -d -1 -p AOMDV -e 52 -c 2 -a 0 -i 0 -k RTR
r -t 2.564372355 -s 6 -d -1 -p AOMDV -e 52 -c 2 -a 0 -i 0 -k RTR
r -t 2.564372638 -s 1 -d -1 -p AOMDV -e 52 -c 2 -a 0 -i 0 -k RTR
r -t 2.564373041 -s 3 -d -1 -p AOMDV -e 52 -c 2 -a 0 -i 0 -k RTR
r -t 2.564373268 -s 0 -d -1 -p AOMDV -e 52 -c 2 -a 0 -i 0 -k RTR
+ -t 2.564498268 -s 0 -d -1 -p AOMDV -e 110 -c 2 -a 0 -i 0 -k MAC 
- -t 2.564498268 -s 0 -d -1 -p AOMDV -e 110 -c 2 -a 0 -i 0 -k MAC
h -t 2.564498268 -s 0 -d -1 -p AOMDV -e 110 -c 2 -a 0 -i 0 -k MAC
+ -t 2.564648616 -s 3 -d -1 -p AOMDV -e 52 -c 2 -a 0 -i 0 -k RTR 
- -t 2.564648616 -s 3 -d -1 -p AOMDV -e 52 -c 2 -a 0 -i 0 -k RTR
h -t 2.564648616 -s 3 -d -1 -p AOMDV -e 52 -c 2 -a 0 -i 0 -k RTR
r -t 2.565378996 -s 1 -d -1 -p AOMDV -e 52 -c 2 -a 0 -i 0 -k MAC
r -t 2.565379179 -s 3 -d -1 -p AOMDV -e 52 -c 2 -a 0 -i 0 -k MAC
r -t 2.565379316 -s 4 -d -1 -p AOMDV -e 52 -c 2 -a 0 -i 0 -k MAC
r -t 2.565379380 -s 9 -d -1 -p AOMDV -e 52 -c 2 -a 0 -i 0 -k MAC
r -t 2.565379592 -s 2 -d -1 -p AOMDV -e 52 -c 2 -a 0 -i 0 -k MAC
r -t 2.565403996 -s 1 -d -1 -p AOMDV -e 52 -c 2 -a 0 -i 0 -k RTR
r -t 2.565404179 -s 3 -d -1 -p AOMDV -e 52 -c 2 -a 0 -i 0 -k RTR
r -t 2.565404316 -s 4 -d -1 -p AOMDV -e 52 -c 2 -a 0 -i 0 -k RTR
r -t 2.565404380 -s 9 -d -1 -p AOMDV -e 52 -c 2 -a 0 -i 0 -k RTR
+ -t 2.565404380 -s 9 -d 0 -p AOMDV -e 52 -c 2 -a 0 -i 0 -k RTR 
- -t 2.565404380 -s 9 -d 0 -p AOMDV -e 52 -c 2 -a 0 -i 0 -k RTR
h -t 2.565404380 -s 9 -d 0 -p AOMDV -e 52 -c 2 -a 0 -i 0 -k RTR
r -t 2.565404592 -s 2 -d -1 -p AOMDV -e 52 -c 2 -a 0 -i 0 -k RTR
+ -t 2.565699380 -s 9 -d -1 -p ARP -e 86 -c 2 -a 0 -i 0 -k MAC 
- -t 2.565699380 -s 9 -d -1 -p ARP -e 86 -c 2 -a 0 -i 0 -k MAC
h -t 2.565699380 -s 9 -d -1 -p ARP -e 86 -c 2 -a 0 -i 0 -k MAC
r -t 2.566388420 -s 3 -d -1 -p ARP -e 28 -c 2 -a 0 -i 0 -k MAC
r -t 2.566388491 -s 0 -d -1 -p ARP -e 28 -c 2 -a 0 -i 0 -k MAC
+ -t 2.566478420 -s 3 -d -1 -p AOMDV -e 110 -c 2 -a 0 -i 0 -k MAC 
- -t 2.566478420 -s 3 -d -1 -p AOMDV -e 110 -c 2 -a 0 -i 0 -k MAC
h -t 2.566478420 -s 3 -d -1 -p AOMDV -e 110 -c 2 -a 0 -i 0 -k MAC
+ -t 2.567168483 -s 5 -d -1 -p AOMDV -e 52 -c 2 -a 0 -i 0 -k RTR 
- -t 2.567168483 -s 5 -d -1 -p AOMDV -e 52 -c 2 -a 0 -i 0 -k RTR
h -t 2.567168483 -s 5 -d -1 -p AOMDV -e 52 -c 2 -a 0 -i 0 -k RTR
r -t 2.567358935 -s 1 -d -1 -p AOMDV -e 52 -c 2 -a 0 -i 0 -k MAC
r -t 2.567359101 -s 7 -d -1 -p AOMDV -e 52 -c 2 -a 0 -i 0 -k MAC
r -t 2.567359263 -s 6 -d -1 -p AOMDV -e 52 -c 2 -a 0 -i 0 -k MAC
r -t 2.567359331 -s 0 -d -1 -p AOMDV -e 52 -c 2 -a 0 -i 0 -k MAC
r -t 2.567359430 -s 4 -d -1 -p AOMDV -e 52 -c 2 -a 0 -i 0 -k MAC
r -t 2.567359460 -s 9 -d -1 -p AOMDV -e 52 -c 2 -a 0 -i 0 -k MAC
r -t 2.567359517 -s 2 -d -1 -p AOMDV -e 52 -c 2 -a 0 -i 0 -k MAC
r -t 2.567359625 -s 5 -d -1 -p AOMDV -e 52 -c 2 -a 0 -i 0 -k MAC
r -t 2.567383935 -s 1 -d -1 -p AOMDV -e 52 -c 2 -a 0 -i 0 -k RTR
r -t 2.567384101 -s 7 -d -1 -p AOMDV -e 52 -c 2 -a 0 -i 0 -k RTR
r -t 2.567384263 -s 6 -d -1 -p AOMDV -e 52 -c 2 -a 0 -i 0 -k RTR
r -t 2.567384331 -s 0 -d -1 -p AOMDV -e 52 -c 2 -a 0 -i 0 -k RTR
r -t 2.567384430 -s 4 -d -1 -p AOMDV -e 52 -c 2 -a 0 -i 0 -k RTR
r -t 2.567384460 -s 9 -d -1 -p AOMDV -e 52 -c 2 -a 0 -i 0 -k RTR
+ -t 2.567384460 -s 9 -d 3 -p AOMDV -e 52 -c 2 -a 0 -i 0 -k RTR 
- -t 2.567384460 -s 9 -d 3 -p AOMDV -e 52 -c 2 -a 0 -i 0 -k RTR
h -t 2.567384460 -s 9 -d 3 -p AOMDV -e 52 -c 2 -a 0 -i 0 -k RTR
r -t 2.567384517 -s 2 -d -1 -p AOMDV -e 52 -c 2 -a 0 -i 0 -k RTR
r -t 2.567384625 -s 5 -d -1 -p AOMDV -e 52 -c 2 -a 0 -i 0 -k RTR
+ -t 2.567429625 -s 5 -d -1 -p AOMDV -e 110 -c 2 -a 0 -i 0 -k MAC 
- -t 2.567429625 -s 5 -d -1 -p AOMDV -e 110 -c 2 -a 0 -i 0 -k MAC
h -t 2.567429625 -s 5 -d -1 -p AOMDV -e 110 -c 2 -a 0 -i 0 -k MAC
+ -t 2.567646438 -s 0 -d -1 -p AOMDV -e 52 -c 2 -a 0 -i 0 -k RTR 
- -t 2.567646438 -s 0 -d -1 -p AOMDV -e 52 -c 2 -a 0 -i 0 -k RTR
h -t 2.567646438 -s 0 -d -1 -p AOMDV -e 52 -c 2 -a 0 -i 0 -k RTR
+ -t 2.567669331 -s 0 -d -1 -p RTS -e 44 -c 2 -a 0 -i 0 -k MAC 
- -t 2.567669331 -s 0 -d -1 -p RTS -e 44 -c 2 -a 0 -i 0 -k MAC
h -t 2.567669331 -s 0 -d -1 -p RTS -e 44 -c 2 -a 0 -i 0 -k MAC
+ -t 2.567669460 -s 9 -d -1 -p ARP -e 86 -c 2 -a 0 -i 0 -k MAC 
- -t 2.567669460 -s 9 -d -1 -p ARP -e 86 -c 2 -a 0 -i 0 -k MAC
h -t 2.567669460 -s 9 -d -1 -p ARP -e 86 -c 2 -a 0 -i 0 -k MAC
d -t 2.567670500 -s 3 -d -1 -p AOMDV -e 110 -c 2 -a 0 -i 0 -k MAC
r -t 2.568309775 -s 8 -d -1 -p AOMDV -e 52 -c 2 -a 0 -i 0 -k MAC
r -t 2.568309867 -s 2 -d -1 -p AOMDV -e 52 -c 2 -a 0 -i 0 -k MAC
r -t 2.568310018 -s 6 -d -1 -p AOMDV -e 52 -c 2 -a 0 -i 0 -k MAC
r -t 2.568310172 -s 4 -d -1 -p AOMDV -e 52 -c 2 -a 0 -i 0 -k MAC
d -t 2.568310500 -s 1 -d -1 -p AOMDV -e 110 -c 2 -a 0 -i 0 -k MAC
r -t 2.568310945 -s 7 -d -1 -p AOMDV -e 52 -c 2 -a 0 -i 0 -k MAC
r -t 2.568334775 -s 8 -d -1 -p AOMDV -e 52 -c 2 -a 0 -i 0 -k RTR
r -t 2.568334867 -s 2 -d -1 -p AOMDV -e 52 -c 2 -a 0 -i 0 -k RTR
r -t 2.568335018 -s 6 -d -1 -p AOMDV -e 52 -c 2 -a 0 -i 0 -k RTR
r -t 2.568335172 -s 4 -d -1 -p AOMDV -e 52 -c 2 -a 0 -i 0 -k RTR
r -t 2.568335945 -s 7 -d -1 -p AOMDV -e 52 -c 2 -a 0 -i 0 -k RTR
d -t 2.568358500 -s 3 -d -1 -p ARP -e 86 -c 2 -a 0 -i 0 -k MAC
+ -t 2.568812572 -s 0 -d -1 -p RTS -e 44 -c 2 -a 0 -i 0 -k MAC 
- -t 2.568812572 -s 0 -d -1 -p RTS -e 44 -c 2 -a 0 -i 0 -k MAC
h -t 2.568812572 -s 0 -d -1 -p RTS -e 44 -c 2 -a 0 -i 0 -k MAC
+ -t 2.568871084 -s 0 -d -1 -p AOMDV -e 52 -c 2 -a 0 -i 0 -k RTR 
- -t 2.568871084 -s 0 -d -1 -p AOMDV -e 52 -c 2 -a 0 -i 0 -k RTR
h -t 2.568871084 -s 0 -d -1 -p AOMDV -e 52 -c 2 -a 0 -i 0 -k RTR
r -t 2.569165683 -s 9 -d -1 -p RTS -e 44 -c 2 -a 0 -i 0 -k MAC
+ -t 2.569175683 -s 9 -d -1 -p CTS -e 38 -c 2 -a 0 -i 0 -k MAC 
- -t 2.569175683 -s 9 -d -1 -p CTS -e 38 -c 2 -a 0 -i 0 -k MAC
h -t 2.569175683 -s 9 -d -1 -p CTS -e 38 -c 2 -a 0 -i 0 -k MAC
r -t 2.569480795 -s 0 -d -1 -p CTS -e 38 -c 2 -a 0 -i 0 -k MAC
+ -t 2.569490795 -s 0 -d -1 -p ARP -e 86 -c 2 -a 0 -i 0 -k MAC 
- -t 2.569490795 -s 0 -d -1 -p ARP -e 86 -c 2 -a 0 -i 0 -k MAC
h -t 2.569490795 -s 0 -d -1 -p ARP -e 86 -c 2 -a 0 -i 0 -k MAC
r -t 2.570179906 -s 9 -d -1 -p ARP -e 28 -c 2 -a 0 -i 0 -k MAC
+ -t 2.570189906 -s 9 -d -1 -p ACK -e 38 -c 2 -a 0 -i 0 -k MAC 
- -t 2.570189906 -s 9 -d -1 -p ACK -e 38 -c 2 -a 0 -i 0 -k MAC
h -t 2.570189906 -s 9 -d -1 -p ACK -e 38 -c 2 -a 0 -i 0 -k MAC
r -t 2.570495018 -s 0 -d -1 -p ACK -e 38 -c 2 -a 0 -i 0 -k MAC
+ -t 2.570665018 -s 0 -d -1 -p AOMDV -e 110 -c 2 -a 0 -i 0 -k MAC 
- -t 2.570665018 -s 0 -d -1 -p AOMDV -e 110 -c 2 -a 0 -i 0 -k MAC
h -t 2.570665018 -s 0 -d -1 -p AOMDV -e 110 -c 2 -a 0 -i 0 -k MAC
r -t 2.571545746 -s 1 -d -1 -p AOMDV -e 52 -c 2 -a 0 -i 0 -k MAC
r -t 2.571545929 -s 3 -d -1 -p AOMDV -e 52 -c 2 -a 0 -i 0 -k MAC
r -t 2.571546066 -s 4 -d -1 -p AOMDV -e 52 -c 2 -a 0 -i 0 -k MAC
r -t 2.571546130 -s 9 -d -1 -p AOMDV -e 52 -c 2 -a 0 -i 0 -k MAC
r -t 2.571546342 -s 2 -d -1 -p AOMDV -e 52 -c 2 -a 0 -i 0 -k MAC
r -t 2.571570746 -s 1 -d -1 -p AOMDV -e 52 -c 2 -a 0 -i 0 -k RTR
r -t 2.571570929 -s 3 -d -1 -p AOMDV -e 52 -c 2 -a 0 -i 0 -k RTR
r -t 2.571571066 -s 4 -d -1 -p AOMDV -e 52 -c 2 -a 0 -i 0 -k RTR
r -t 2.571571130 -s 9 -d -1 -p AOMDV -e 52 -c 2 -a 0 -i 0 -k RTR
r -t 2.571571342 -s 2 -d -1 -p AOMDV -e 52 -c 2 -a 0 -i 0 -k RTR
+ -t 2.571795018 -s 0 -d -1 -p AOMDV -e 110 -c 2 -a 0 -i 0 -k MAC 
- -t 2.571795018 -s 0 -d -1 -p AOMDV -e 110 -c 2 -a 0 -i 0 -k MAC
h -t 2.571795018 -s 0 -d -1 -p AOMDV -e 110 -c 2 -a 0 -i 0 -k MAC
r -t 2.572675746 -s 1 -d -1 -p AOMDV -e 52 -c 2 -a 0 -i 0 -k MAC
r -t 2.572675929 -s 3 -d -1 -p AOMDV -e 52 -c 2 -a 0 -i 0 -k MAC
r -t 2.572676066 -s 4 -d -1 -p AOMDV -e 52 -c 2 -a 0 -i 0 -k MAC
r -t 2.572676130 -s 9 -d -1 -p AOMDV -e 52 -c 2 -a 0 -i 0 -k MAC
r -t 2.572676342 -s 2 -d -1 -p AOMDV -e 52 -c 2 -a 0 -i 0 -k MAC
r -t 2.572700746 -s 1 -d -1 -p AOMDV -e 52 -c 2 -a 0 -i 0 -k RTR
r -t 2.572700929 -s 3 -d -1 -p AOMDV -e 52 -c 2 -a 0 -i 0 -k RTR
r -t 2.572701066 -s 4 -d -1 -p AOMDV -e 52 -c 2 -a 0 -i 0 -k RTR
r -t 2.572701130 -s 9 -d -1 -p AOMDV -e 52 -c 2 -a 0 -i 0 -k RTR
r -t 2.572701342 -s 2 -d -1 -p AOMDV -e 52 -c 2 -a 0 -i 0 -k RTR
+ -t 2.572845929 -s 3 -d -1 -p AOMDV -e 110 -c 2 -a 0 -i 0 -k MAC 
- -t 2.572845929 -s 3 -d -1 -p AOMDV -e 110 -c 2 -a 0 -i 0 -k MAC
h -t 2.572845929 -s 3 -d -1 -p AOMDV -e 110 -c 2 -a 0 -i 0 -k MAC
r -t 2.573726444 -s 1 -d -1 -p AOMDV -e 52 -c 2 -a 0 -i 0 -k MAC
r -t 2.573726610 -s 7 -d -1 -p AOMDV -e 52 -c 2 -a 0 -i 0 -k MAC
r -t 2.573726772 -s 6 -d -1 -p AOMDV -e 52 -c 2 -a 0 -i 0 -k MAC
r -t 2.573726841 -s 0 -d -1 -p AOMDV -e 52 -c 2 -a 0 -i 0 -k MAC
r -t 2.573726939 -s 4 -d -1 -p AOMDV -e 52 -c 2 -a 0 -i 0 -k MAC
r -t 2.573726970 -s 9 -d -1 -p AOMDV -e 52 -c 2 -a 0 -i 0 -k MAC
r -t 2.573727026 -s 2 -d -1 -p AOMDV -e 52 -c 2 -a 0 -i 0 -k MAC
r -t 2.573727135 -s 5 -d -1 -p AOMDV -e 52 -c 2 -a 0 -i 0 -k MAC
r -t 2.573751444 -s 1 -d -1 -p AOMDV -e 52 -c 2 -a 0 -i 0 -k RTR
r -t 2.573751610 -s 7 -d -1 -p AOMDV -e 52 -c 2 -a 0 -i 0 -k RTR
r -t 2.573751772 -s 6 -d -1 -p AOMDV -e 52 -c 2 -a 0 -i 0 -k RTR
r -t 2.573751841 -s 0 -d -1 -p AOMDV -e 52 -c 2 -a 0 -i 0 -k RTR
r -t 2.573751939 -s 4 -d -1 -p AOMDV -e 52 -c 2 -a 0 -i 0 -k RTR
r -t 2.573751970 -s 9 -d -1 -p AOMDV -e 52 -c 2 -a 0 -i 0 -k RTR
r -t 2.573752026 -s 2 -d -1 -p AOMDV -e 52 -c 2 -a 0 -i 0 -k RTR
r -t 2.573752135 -s 5 -d -1 -p AOMDV -e 52 -c 2 -a 0 -i 0 -k RTR
+ -t 2.573816970 -s 9 -d -1 -p RTS -e 44 -c 2 -a 0 -i 0 -k MAC 
- -t 2.573816970 -s 9 -d -1 -p RTS -e 44 -c 2 -a 0 -i 0 -k MAC
h -t 2.573816970 -s 9 -d -1 -p RTS -e 44 -c 2 -a 0 -i 0 -k MAC
r -t 2.574170081 -s 0 -d -1 -p RTS -e 44 -c 2 -a 0 -i 0 -k MAC
+ -t 2.574180081 -s 0 -d -1 -p CTS -e 38 -c 2 -a 0 -i 0 -k MAC 
- -t 2.574180081 -s 0 -d -1 -p CTS -e 38 -c 2 -a 0 -i 0 -k MAC
h -t 2.574180081 -s 0 -d -1 -p CTS -e 38 -c 2 -a 0 -i 0 -k MAC
r -t 2.574485193 -s 9 -d -1 -p CTS -e 38 -c 2 -a 0 -i 0 -k MAC
+ -t 2.574495193 -s 9 -d 0 -p AOMDV -e 110 -c 2 -a 0 -i 0 -k MAC 
- -t 2.574495193 -s 9 -d 0 -p AOMDV -e 110 -c 2 -a 0 -i 0 -k MAC
h -t 2.574495193 -s 9 -d 0 -p AOMDV -e 110 -c 2 -a 0 -i 0 -k MAC
r -t 2.575376304 -s 0 -d 0 -p AOMDV -e 52 -c 2 -a 0 -i 0 -k MAC
+ -t 2.575386304 -s 0 -d -1 -p ACK -e 38 -c 2 -a 0 -i 0 -k MAC 
- -t 2.575386304 -s 0 -d -1 -p ACK -e 38 -c 2 -a 0 -i 0 -k MAC
h -t 2.575386304 -s 0 -d -1 -p ACK -e 38 -c 2 -a 0 -i 0 -k MAC
+ -t 2.575401304 -s 0 -d 1 -p AOMDV -e 52 -c 2 -a 0 -i 0 -k RTR 
- -t 2.575401304 -s 0 -d 1 -p AOMDV -e 52 -c 2 -a 0 -i 0 -k RTR
h -t 2.575401304 -s 0 -d 1 -p AOMDV -e 52 -c 2 -a 0 -i 0 -k RTR
r -t 2.575691416 -s 9 -d -1 -p ACK -e 38 -c 2 -a 0 -i 0 -k MAC
+ -t 2.576000304 -s 0 -d -1 -p ARP -e 86 -c 2 -a 0 -i 0 -k MAC 
- -t 2.576000304 -s 0 -d -1 -p ARP -e 86 -c 2 -a 0 -i 0 -k MAC
h -t 2.576000304 -s 0 -d -1 -p ARP -e 86 -c 2 -a 0 -i 0 -k MAC
r -t 2.576689032 -s 1 -d -1 -p ARP -e 28 -c 2 -a 0 -i 0 -k MAC
r -t 2.576689216 -s 3 -d -1 -p ARP -e 28 -c 2 -a 0 -i 0 -k MAC
r -t 2.576689353 -s 4 -d -1 -p ARP -e 28 -c 2 -a 0 -i 0 -k MAC
r -t 2.576689416 -s 9 -d -1 -p ARP -e 28 -c 2 -a 0 -i 0 -k MAC
r -t 2.576689628 -s 2 -d -1 -p ARP -e 28 -c 2 -a 0 -i 0 -k MAC
+ -t 2.577084032 -s 1 -d -1 -p RTS -e 44 -c 2 -a 0 -i 0 -k MAC 
- -t 2.577084032 -s 1 -d -1 -p RTS -e 44 -c 2 -a 0 -i 0 -k MAC
h -t 2.577084032 -s 1 -d -1 -p RTS -e 44 -c 2 -a 0 -i 0 -k MAC
r -t 2.577436760 -s 0 -d -1 -p RTS -e 44 -c 2 -a 0 -i 0 -k MAC
+ -t 2.577446760 -s 0 -d -1 -p CTS -e 38 -c 2 -a 0 -i 0 -k MAC 
- -t 2.577446760 -s 0 -d -1 -p CTS -e 38 -c 2 -a 0 -i 0 -k MAC
h -t 2.577446760 -s 0 -d -1 -p CTS -e 38 -c 2 -a 0 -i 0 -k MAC
r -t 2.577751488 -s 1 -d -1 -p CTS -e 38 -c 2 -a 0 -i 0 -k MAC
+ -t 2.577761488 -s 1 -d -1 -p ARP -e 86 -c 2 -a 0 -i 0 -k MAC 
- -t 2.577761488 -s 1 -d -1 -p ARP -e 86 -c 2 -a 0 -i 0 -k MAC
h -t 2.577761488 -s 1 -d -1 -p ARP -e 86 -c 2 -a 0 -i 0 -k MAC
+ -t 2.578096012 -s 7 -d -1 -p AOMDV -e 52 -c 2 -a 0 -i 0 -k RTR 
- -t 2.578096012 -s 7 -d -1 -p AOMDV -e 52 -c 2 -a 0 -i 0 -k RTR
h -t 2.578096012 -s 7 -d -1 -p AOMDV -e 52 -c 2 -a 0 -i 0 -k RTR
r -t 2.578450215 -s 0 -d -1 -p ARP -e 28 -c 2 -a 0 -i 0 -k MAC
+ -t 2.578460215 -s 0 -d -1 -p ACK -e 38 -c 2 -a 0 -i 0 -k MAC 
- -t 2.578460215 -s 0 -d -1 -p ACK -e 38 -c 2 -a 0 -i 0 -k MAC
h -t 2.578460215 -s 0 -d -1 -p ACK -e 38 -c 2 -a 0 -i 0 -k MAC
r -t 2.578764943 -s 1 -d -1 -p ACK -e 38 -c 2 -a 0 -i 0 -k MAC
+ -t 2.578934215 -s 0 -d -1 -p RTS -e 44 -c 2 -a 0 -i 0 -k MAC 
- -t 2.578934215 -s 0 -d -1 -p RTS -e 44 -c 2 -a 0 -i 0 -k MAC
h -t 2.578934215 -s 0 -d -1 -p RTS -e 44 -c 2 -a 0 -i 0 -k MAC
r -t 2.579286943 -s 1 -d -1 -p RTS -e 44 -c 2 -a 0 -i 0 -k MAC
+ -t 2.579296943 -s 1 -d -1 -p CTS -e 38 -c 2 -a 0 -i 0 -k MAC 
- -t 2.579296943 -s 1 -d -1 -p CTS -e 38 -c 2 -a 0 -i 0 -k MAC
h -t 2.579296943 -s 1 -d -1 -p CTS -e 38 -c 2 -a 0 -i 0 -k MAC
r -t 2.579601671 -s 0 -d -1 -p CTS -e 38 -c 2 -a 0 -i 0 -k MAC
+ -t 2.579611671 -s 0 -d 1 -p AOMDV -e 110 -c 2 -a 0 -i 0 -k MAC 
- -t 2.579611671 -s 0 -d 1 -p AOMDV -e 110 -c 2 -a 0 -i 0 -k MAC
h -t 2.579611671 -s 0 -d 1 -p AOMDV -e 110 -c 2 -a 0 -i 0 -k MAC
r -t 2.580492399 -s 1 -d 1 -p AOMDV -e 52 -c 2 -a 0 -i 0 -k MAC
+ -t 2.580502399 -s 1 -d -1 -p ACK -e 38 -c 2 -a 0 -i 0 -k MAC 
- -t 2.580502399 -s 1 -d -1 -p ACK -e 38 -c 2 -a 0 -i 0 -k MAC
h -t 2.580502399 -s 1 -d -1 -p ACK -e 38 -c 2 -a 0 -i 0 -k MAC
+ -t 2.580517399 -s 1 -d 8 -p AOMDV -e 52 -c 2 -a 0 -i 0 -k RTR 
- -t 2.580517399 -s 1 -d 8 -p AOMDV -e 52 -c 2 -a 0 -i 0 -k RTR
h -t 2.580517399 -s 1 -d 8 -p AOMDV -e 52 -c 2 -a 0 -i 0 -k RTR
r -t 2.580807126 -s 0 -d -1 -p ACK -e 38 -c 2 -a 0 -i 0 -k MAC
+ -t 2.580977455 -s 7 -d -1 -p AOMDV -e 110 -c 2 -a 0 -i 0 -k MAC 
- -t 2.580977455 -s 7 -d -1 -p AOMDV -e 110 -c 2 -a 0 -i 0 -k MAC
h -t 2.580977455 -s 7 -d -1 -p AOMDV -e 110 -c 2 -a 0 -i 0 -k MAC
r -t 2.581858136 -s 3 -d -1 -p AOMDV -e 52 -c 2 -a 0 -i 0 -k MAC
r -t 2.581858395 -s 6 -d -1 -p AOMDV -e 52 -c 2 -a 0 -i 0 -k MAC
r -t 2.581858512 -s 1 -d -1 -p AOMDV -e 52 -c 2 -a 0 -i 0 -k MAC
r -t 2.581858775 -s 5 -d -1 -p AOMDV -e 52 -c 2 -a 0 -i 0 -k MAC
r -t 2.581883136 -s 3 -d -1 -p AOMDV -e 52 -c 2 -a 0 -i 0 -k RTR
r -t 2.581883395 -s 6 -d -1 -p AOMDV -e 52 -c 2 -a 0 -i 0 -k RTR
r -t 2.581883512 -s 1 -d -1 -p AOMDV -e 52 -c 2 -a 0 -i 0 -k RTR
r -t 2.581883775 -s 5 -d -1 -p AOMDV -e 52 -c 2 -a 0 -i 0 -k RTR
+ -t 2.582368512 -s 1 -d -1 -p ARP -e 86 -c 2 -a 0 -i 0 -k MAC 
- -t 2.582368512 -s 1 -d -1 -p ARP -e 86 -c 2 -a 0 -i 0 -k MAC
h -t 2.582368512 -s 1 -d -1 -p ARP -e 86 -c 2 -a 0 -i 0 -k MAC
r -t 2.583057026 -s 3 -d -1 -p ARP -e 28 -c 2 -a 0 -i 0 -k MAC
r -t 2.583057033 -s 4 -d -1 -p ARP -e 28 -c 2 -a 0 -i 0 -k MAC
r -t 2.583057143 -s 6 -d -1 -p ARP -e 28 -c 2 -a 0 -i 0 -k MAC
r -t 2.583057205 -s 2 -d -1 -p ARP -e 28 -c 2 -a 0 -i 0 -k MAC
r -t 2.583057239 -s 0 -d -1 -p ARP -e 28 -c 2 -a 0 -i 0 -k MAC
r -t 2.583057386 -s 5 -d -1 -p ARP -e 28 -c 2 -a 0 -i 0 -k MAC
r -t 2.583057535 -s 8 -d -1 -p ARP -e 28 -c 2 -a 0 -i 0 -k MAC
r -t 2.583057568 -s 7 -d -1 -p ARP -e 28 -c 2 -a 0 -i 0 -k MAC
+ -t 2.583652535 -s 8 -d -1 -p RTS -e 44 -c 2 -a 0 -i 0 -k MAC 
- -t 2.583652535 -s 8 -d -1 -p RTS -e 44 -c 2 -a 0 -i 0 -k MAC
h -t 2.583652535 -s 8 -d -1 -p RTS -e 44 -c 2 -a 0 -i 0 -k MAC
r -t 2.584005558 -s 1 -d -1 -p RTS -e 44 -c 2 -a 0 -i 0 -k MAC
+ -t 2.584015558 -s 1 -d -1 -p CTS -e 38 -c 2 -a 0 -i 0 -k MAC 
- -t 2.584015558 -s 1 -d -1 -p CTS -e 38 -c 2 -a 0 -i 0 -k MAC
h -t 2.584015558 -s 1 -d -1 -p CTS -e 38 -c 2 -a 0 -i 0 -k MAC
r -t 2.584320580 -s 8 -d -1 -p CTS -e 38 -c 2 -a 0 -i 0 -k MAC
+ -t 2.584330580 -s 8 -d -1 -p ARP -e 86 -c 2 -a 0 -i 0 -k MAC 
- -t 2.584330580 -s 8 -d -1 -p ARP -e 86 -c 2 -a 0 -i 0 -k MAC
h -t 2.584330580 -s 8 -d -1 -p ARP -e 86 -c 2 -a 0 -i 0 -k MAC
r -t 2.585019603 -s 1 -d -1 -p ARP -e 28 -c 2 -a 0 -i 0 -k MAC
+ -t 2.585029603 -s 1 -d -1 -p ACK -e 38 -c 2 -a 0 -i 0 -k MAC 
- -t 2.585029603 -s 1 -d -1 -p ACK -e 38 -c 2 -a 0 -i 0 -k MAC
h -t 2.585029603 -s 1 -d -1 -p ACK -e 38 -c 2 -a 0 -i 0 -k MAC
r -t 2.585334626 -s 8 -d -1 -p ACK -e 38 -c 2 -a 0 -i 0 -k MAC
+ -t 2.585683603 -s 1 -d -1 -p RTS -e 44 -c 2 -a 0 -i 0 -k MAC 
- -t 2.585683603 -s 1 -d -1 -p RTS -e 44 -c 2 -a 0 -i 0 -k MAC
h -t 2.585683603 -s 1 -d -1 -p RTS -e 44 -c 2 -a 0 -i 0 -k MAC
r -t 2.586036626 -s 8 -d -1 -p RTS -e 44 -c 2 -a 0 -i 0 -k MAC
+ -t 2.586046626 -s 8 -d -1 -p CTS -e 38 -c 2 -a 0 -i 0 -k MAC 
- -t 2.586046626 -s 8 -d -1 -p CTS -e 38 -c 2 -a 0 -i 0 -k MAC
h -t 2.586046626 -s 8 -d -1 -p CTS -e 38 -c 2 -a 0 -i 0 -k MAC
r -t 2.586351649 -s 1 -d -1 -p CTS -e 38 -c 2 -a 0 -i 0 -k MAC
+ -t 2.586361649 -s 1 -d 8 -p AOMDV -e 110 -c 2 -a 0 -i 0 -k MAC 
- -t 2.586361649 -s 1 -d 8 -p AOMDV -e 110 -c 2 -a 0 -i 0 -k MAC
h -t 2.586361649 -s 1 -d 8 -p AOMDV -e 110 -c 2 -a 0 -i 0 -k MAC
r -t 2.587242672 -s 8 -d 8 -p AOMDV -e 52 -c 2 -a 0 -i 0 -k MAC
+ -t 2.587252672 -s 8 -d -1 -p ACK -e 38 -c 2 -a 0 -i 0 -k MAC 
- -t 2.587252672 -s 8 -d -1 -p ACK -e 38 -c 2 -a 0 -i 0 -k MAC
h -t 2.587252672 -s 8 -d -1 -p ACK -e 38 -c 2 -a 0 -i 0 -k MAC
+ -t 2.587267672 -s 8 -d 1 -p cbr -e 532 -c 2 -a 0 -i 0 -k RTR 
- -t 2.587267672 -s 8 -d 1 -p cbr -e 532 -c 2 -a 0 -i 0 -k RTR
h -t 2.587267672 -s 8 -d 1 -p cbr -e 532 -c 2 -a 0 -i 0 -k RTR
r -t 2.587557695 -s 1 -d -1 -p ACK -e 38 -c 2 -a 0 -i 0 -k MAC
+ -t 2.587906672 -s 8 -d -1 -p RTS -e 44 -c 2 -a 0 -i 0 -k MAC 
- -t 2.587906672 -s 8 -d -1 -p RTS -e 44 -c 2 -a 0 -i 0 -k MAC
h -t 2.587906672 -s 8 -d -1 -p RTS -e 44 -c 2 -a 0 -i 0 -k MAC
r -t 2.588259695 -s 1 -d -1 -p RTS -e 44 -c 2 -a 0 -i 0 -k MAC
+ -t 2.588269695 -s 1 -d -1 -p CTS -e 38 -c 2 -a 0 -i 0 -k MAC 
- -t 2.588269695 -s 1 -d -1 -p CTS -e 38 -c 2 -a 0 -i 0 -k MAC
h -t 2.588269695 -s 1 -d -1 -p CTS -e 38 -c 2 -a 0 -i 0 -k MAC
r -t 2.588574718 -s 8 -d -1 -p CTS -e 38 -c 2 -a 0 -i 0 -k MAC
+ -t 2.588584718 -s 8 -d 1 -p cbr -e 590 -c 2 -a 0 -i 0 -k MAC 
- -t 2.588584718 -s 8 -d 1 -p cbr -e 590 -c 2 -a 0 -i 0 -k MAC
h -t 2.588584718 -s 8 -d 1 -p cbr -e 590 -c 2 -a 0 -i 0 -k MAC
r -t 2.593305741 -s 1 -d 1 -p cbr -e 532 -c 2 -a 0 -i 0 -k MAC
+ -t 2.593315741 -s 1 -d -1 -p ACK -e 38 -c 2 -a 0 -i 0 -k MAC 
- -t 2.593315741 -s 1 -d -1 -p ACK -e 38 -c 2 -a 0 -i 0 -k MAC
h -t 2.593315741 -s 1 -d -1 -p ACK -e 38 -c 2 -a 0 -i 0 -k MAC
+ -t 2.593330741 -s 1 -d 0 -p cbr -e 532 -c 2 -a 0 -i 0 -k RTR 
- -t 2.593330741 -s 1 -d 0 -p cbr -e 532 -c 2 -a 0 -i 0 -k RTR
h -t 2.593330741 -s 1 -d 0 -p cbr -e 532 -c 2 -a 0 -i 0 -k RTR
r -t 2.593620764 -s 8 -d -1 -p ACK -e 38 -c 2 -a 0 -i 0 -k MAC
+ -t 2.593709741 -s 1 -d -1 -p RTS -e 44 -c 2 -a 0 -i 0 -k MAC 
- -t 2.593709741 -s 1 -d -1 -p RTS -e 44 -c 2 -a 0 -i 0 -k MAC
h -t 2.593709741 -s 1 -d -1 -p RTS -e 44 -c 2 -a 0 -i 0 -k MAC
r -t 2.594062468 -s 0 -d -1 -p RTS -e 44 -c 2 -a 0 -i 0 -k MAC
+ -t 2.594072468 -s 0 -d -1 -p CTS -e 38 -c 2 -a 0 -i 0 -k MAC 
- -t 2.594072468 -s 0 -d -1 -p CTS -e 38 -c 2 -a 0 -i 0 -k MAC
h -t 2.594072468 -s 0 -d -1 -p CTS -e 38 -c 2 -a 0 -i 0 -k MAC
r -t 2.594377196 -s 1 -d -1 -p CTS -e 38 -c 2 -a 0 -i 0 -k MAC
+ -t 2.594387196 -s 1 -d 0 -p cbr -e 590 -c 2 -a 0 -i 0 -k MAC 
- -t 2.594387196 -s 1 -d 0 -p cbr -e 590 -c 2 -a 0 -i 0 -k MAC
h -t 2.594387196 -s 1 -d 0 -p cbr -e 590 -c 2 -a 0 -i 0 -k MAC
r -t 2.599107924 -s 0 -d 0 -p cbr -e 532 -c 2 -a 0 -i 0 -k MAC
+ -t 2.599117924 -s 0 -d -1 -p ACK -e 38 -c 2 -a 0 -i 0 -k MAC 
- -t 2.599117924 -s 0 -d -1 -p ACK -e 38 -c 2 -a 0 -i 0 -k MAC
h -t 2.599117924 -s 0 -d -1 -p ACK -e 38 -c 2 -a 0 -i 0 -k MAC
+ -t 2.599132924 -s 0 -d 9 -p cbr -e 532 -c 2 -a 0 -i 0 -k RTR 
- -t 2.599132924 -s 0 -d 9 -p cbr -e 532 -c 2 -a 0 -i 0 -k RTR
h -t 2.599132924 -s 0 -d 9 -p cbr -e 532 -c 2 -a 0 -i 0 -k RTR
r -t 2.599422652 -s 1 -d -1 -p ACK -e 38 -c 2 -a 0 -i 0 -k MAC
+ -t 2.600051924 -s 0 -d -1 -p RTS -e 44 -c 2 -a 0 -i 0 -k MAC 
- -t 2.600051924 -s 0 -d -1 -p RTS -e 44 -c 2 -a 0 -i 0 -k MAC
h -t 2.600051924 -s 0 -d -1 -p RTS -e 44 -c 2 -a 0 -i 0 -k MAC
r -t 2.600405036 -s 9 -d -1 -p RTS -e 44 -c 2 -a 0 -i 0 -k MAC
+ -t 2.600415036 -s 9 -d -1 -p CTS -e 38 -c 2 -a 0 -i 0 -k MAC 
- -t 2.600415036 -s 9 -d -1 -p CTS -e 38 -c 2 -a 0 -i 0 -k MAC
h -t 2.600415036 -s 9 -d -1 -p CTS -e 38 -c 2 -a 0 -i 0 -k MAC
r -t 2.600720147 -s 0 -d -1 -p CTS -e 38 -c 2 -a 0 -i 0 -k MAC
+ -t 2.600730147 -s 0 -d 9 -p cbr -e 590 -c 2 -a 0 -i 0 -k MAC 
- -t 2.600730147 -s 0 -d 9 -p cbr -e 590 -c 2 -a 0 -i 0 -k MAC
h -t 2.600730147 -s 0 -d 9 -p cbr -e 590 -c 2 -a 0 -i 0 -k MAC
r -t 2.605451259 -s 9 -d 9 -p cbr -e 532 -c 2 -a 0 -i 0 -k MAC
+ -t 2.605461259 -s 9 -d -1 -p ACK -e 38 -c 2 -a 0 -i 0 -k MAC 
- -t 2.605461259 -s 9 -d -1 -p ACK -e 38 -c 2 -a 0 -i 0 -k MAC
h -t 2.605461259 -s 9 -d -1 -p ACK -e 38 -c 2 -a 0 -i 0 -k MAC
r -t 2.605476259 -s 9 -d 9 -p cbr -e 532 -c 2 -a 0 -i 0 -k AGT
r -t 2.605766370 -s 0 -d -1 -p ACK -e 38 -c 2 -a 0 -i 0 -k MAC
+ -t 2.731833653 -s 4 -d -1 -p AOMDV -e 44 -c 2 -a 0 -i 0 -k RTR 
- -t 2.731833653 -s 4 -d -1 -p AOMDV -e 44 -c 2 -a 0 -i 0 -k RTR
h -t 2.731833653 -s 4 -d -1 -p AOMDV -e 44 -c 2 -a 0 -i 0 -k RTR
+ -t 2.732348653 -s 4 -d -1 -p AOMDV -e 102 -c 2 -a 0 -i 0 -k MAC 
- -t 2.732348653 -s 4 -d -1 -p AOMDV -e 102 -c 2 -a 0 -i 0 -k MAC
h -t 2.732348653 -s 4 -d -1 -p AOMDV -e 102 -c 2 -a 0 -i 0 -k MAC
r -t 2.733164959 -s 2 -d -1 -p AOMDV -e 44 -c 2 -a 0 -i 0 -k MAC
r -t 2.733165175 -s 1 -d -1 -p AOMDV -e 44 -c 2 -a 0 -i 0 -k MAC
r -t 2.733165200 -s 5 -d -1 -p AOMDV -e 44 -c 2 -a 0 -i 0 -k MAC
r -t 2.733165237 -s 6 -d -1 -p AOMDV -e 44 -c 2 -a 0 -i 0 -k MAC
r -t 2.733165338 -s 8 -d -1 -p AOMDV -e 44 -c 2 -a 0 -i 0 -k MAC
r -t 2.733165663 -s 3 -d -1 -p AOMDV -e 44 -c 2 -a 0 -i 0 -k MAC
r -t 2.733165702 -s 0 -d -1 -p AOMDV -e 44 -c 2 -a 0 -i 0 -k MAC
r -t 2.733189959 -s 2 -d -1 -p AOMDV -e 44 -c 2 -a 0 -i 0 -k RTR
r -t 2.733190175 -s 1 -d -1 -p AOMDV -e 44 -c 2 -a 0 -i 0 -k RTR
r -t 2.733190200 -s 5 -d -1 -p AOMDV -e 44 -c 2 -a 0 -i 0 -k RTR
r -t 2.733190237 -s 6 -d -1 -p AOMDV -e 44 -c 2 -a 0 -i 0 -k RTR
r -t 2.733190338 -s 8 -d -1 -p AOMDV -e 44 -c 2 -a 0 -i 0 -k RTR
r -t 2.733190663 -s 3 -d -1 -p AOMDV -e 44 -c 2 -a 0 -i 0 -k RTR
r -t 2.733190702 -s 0 -d -1 -p AOMDV -e 44 -c 2 -a 0 -i 0 -k RTR
+ -t 2.779648316 -s 3 -d -1 -p AOMDV -e 44 -c 2 -a 0 -i 0 -k RTR 
- -t 2.779648316 -s 3 -d -1 -p AOMDV -e 44 -c 2 -a 0 -i 0 -k RTR
h -t 2.779648316 -s 3 -d -1 -p AOMDV -e 44 -c 2 -a 0 -i 0 -k RTR